 Gaussian 09, Revision E.01,
 Gaussian 09:  ES64L-G09RevE.01 30-Nov-2015

 ----------------
 #P G4 OPT=calcfc
 ----------------

 --------
 HOFDOV01
 --------
 Symbolic Z-matrix:
 Charge =  0 Multiplicity = 1

 SCF Done:  E(RB3LYP) =  -622.488305073     A.U. after   16 cycles
 SCF Done:  E(RB3LYP) =  -622.582690005     A.U. after   15 cycles
 SCF Done:  E(RB3LYP) =  -622.625178967     A.U. after   17 cycles
 SCF Done:  E(RB3LYP) =  -622.630242167     A.U. after   17 cycles
 SCF Done:  E(RB3LYP) =  -622.624678832     A.U. after   17 cycles
 SCF Done:  E(RB3LYP) =  -622.630578583     A.U. after   12 cycles
 SCF Done:  E(RB3LYP) =  -622.577488478     A.U. after   16 cycles
 SCF Done:  E(RB3LYP) =  -622.632673330     A.U. after   12 cycles
 SCF Done:  E(RB3LYP) =  -622.633213944     A.U. after   13 cycles
 SCF Done:  E(RB3LYP) =  -622.633406022     A.U. after   14 cycles
 SCF Done:  E(RB3LYP) =  -622.633646781     A.U. after    8 cycles
 SCF Done:  E(RB3LYP) =  -622.633646849     A.U. after    8 cycles
 SCF Done:  E(RB3LYP) =  -622.633646872     A.U. after    7 cycles
 Optimization completed.
    -- Stationary point found.
 Normal termination of Gaussian 09 at Fri Aug 27 03:56:53 2021.

 ----------------------------------------------------------
 #P Geom=AllCheck Guess=TCheck SCRF=Check B3LYP/GTBas3 Freq
 ----------------------------------------------------------

 Structure from the checkpoint file:  "/public/home/users/caep010/.cache/gau_scr/Gau-22514.chk"
 --------
 HOFDOV01
 --------
 Charge =  0 Multiplicity = 1

 SCF Done:  E(RB3LYP) =  -622.633646872     A.U. after    1 cycles

  Exact polarizability: 161.195   3.977  95.459   2.717  -7.933  56.386
 Approx polarizability: 302.212  13.163 168.164   8.025 -14.254  94.122

                      1                      2                      3
                      A                      A                      A
 Frequencies --     54.3565                68.7060               101.6961
 Red. masses --      5.0225                 6.5342                 7.4157
 Frc consts  --      0.0087                 0.0182                 0.0452
 IR Inten    --      2.8490                 1.4131                 3.5083

                      4                      5                      6
                      A                      A                      A
 Frequencies --    146.5789               185.9107               205.2094
 Red. masses --      2.4336                 1.4696                 7.5643
 Frc consts  --      0.0308                 0.0299                 0.1877
 IR Inten    --      2.4086                 1.1577                 7.7014

                      7                      8                      9
                      A                      A                      A
 Frequencies --    310.7258               356.4491               394.4538
 Red. masses --      4.4040                 7.0626                 7.9252
 Frc consts  --      0.2505                 0.5287                 0.7265
 IR Inten    --      2.3397                 1.5020                 3.3191

                     10                     11                     12
                      A                      A                      A
 Frequencies --    416.0578               433.4048               497.1501
 Red. masses --      3.8076                 3.1760                 5.3832
 Frc consts  --      0.3883                 0.3515                 0.7839
 IR Inten    --      0.9145                 0.7374                 5.4804

                     13                     14                     15
                      A                      A                      A
 Frequencies --    541.8491               623.1747               636.6857
 Red. masses --      2.6916                 6.5402                 5.3670
 Frc consts  --      0.4656                 1.4964                 1.2818
 IR Inten    --      7.5755                39.8586                 6.2639

                     16                     17                     18
                      A                      A                      A
 Frequencies --    672.4150               742.3844               771.7426
 Red. masses --      6.8345                 4.0910                13.1816
 Frc consts  --      1.8207                 1.3284                 4.6256
 IR Inten    --      0.6476                 2.1084                13.8583

                     19                     20                     21
                      A                      A                      A
 Frequencies --    803.7587               831.9549               869.9752
 Red. masses --      5.7842                 1.2574                 2.2592
 Frc consts  --      2.2016                 0.5128                 1.0074
 IR Inten    --      4.6025                 1.9252                31.6323

                     22                     23                     24
                      A                      A                      A
 Frequencies --    871.9036               948.2040               953.6634
 Red. masses --      3.6165                 1.3244                 2.6669
 Frc consts  --      1.6199                 0.7016                 1.4290
 IR Inten    --     13.3371                 1.4329                90.1688

                     25                     26                     27
                      A                      A                      A
 Frequencies --    965.4573              1040.9965              1111.0080
 Red. masses --      1.5319                 2.7013                 1.6423
 Frc consts  --      0.8413                 1.7247                 1.1944
 IR Inten    --     24.7054                 8.2008                 8.4644

                     28                     29                     30
                      A                      A                      A
 Frequencies --   1126.5095              1146.1749              1188.1630
 Red. masses --      2.2043                 1.4737                 2.0127
 Frc consts  --      1.6481                 1.1407                 1.6741
 IR Inten    --     47.6353                 6.6985                27.5505

                     31                     32                     33
                      A                      A                      A
 Frequencies --   1197.7286              1268.2107              1320.0876
 Red. masses --      1.1556                 5.8668                 5.5268
 Frc consts  --      0.9767                 5.5595                 5.6745
 IR Inten    --     38.9332                 3.9896               416.9537

                     34                     35                     36
                      A                      A                      A
 Frequencies --   1327.5623              1355.0840              1385.5402
 Red. masses --      1.3942                 3.2062                 8.6071
 Frc consts  --      1.4477                 3.4687                 9.7352
 IR Inten    --     28.8199                43.5940               118.4915

                     37                     38                     39
                      A                      A                      A
 Frequencies --   1455.3260              1480.4350              1488.8151
 Red. masses --      1.2051                 1.1506                 2.7514
 Frc consts  --      1.5038                 1.4858                 3.5933
 IR Inten    --     60.1892                13.8282                25.1365

                     40                     41                     42
                      A                      A                      A
 Frequencies --   1507.8639              1525.1975              1561.3027
 Red. masses --      1.1465                 2.4676                 7.5046
 Frc consts  --      1.5358                 3.3821                10.7784
 IR Inten    --     21.9701               159.2609                 2.1490

                     43                     44                     45
                      A                      A                      A
 Frequencies --   1658.9180              1672.0469              3042.2042
 Red. masses --     12.5530                 5.9681                 1.0431
 Frc consts  --     20.3539                 9.8306                 5.6879
 IR Inten    --    295.0742                 7.0265                21.4918

                     46                     47                     48
                      A                      A                      A
 Frequencies --   3128.5105              3166.7459              3207.5875
 Red. masses --      1.0915                 1.1048                 1.0899
 Frc consts  --      6.2942                 6.5276                 6.6070
 IR Inten    --      8.4949                 3.8561                 2.1133

                     49                     50                     51
                      A                      A                      A
 Frequencies --   3239.0303              3250.7108              3254.6446
 Red. masses --      1.0891                 1.0938                 1.0962
 Frc consts  --      6.7320                 6.8101                 6.8414
 IR Inten    --      0.0849                 0.5757                 0.5140

 - Thermochemistry -
 -------------------
 Temperature   298.150 Kelvin.  Pressure   1.00000 Atm.
 Atom     1 has atomic number  8 and mass  15.99491

 Molecular mass:   169.04874 amu.
 Principal axes and moments of inertia in atomic units:
                           1         2         3
     Eigenvalues --   712.955553353.553273842.54062
           X            0.99985   0.01631   0.00510
           Y           -0.01620   0.99962  -0.02211
           Z           -0.00545   0.02202   0.99974
 This molecule is an asymmetric top.
 Rotational symmetry number  1.
 Warning -- assumption of classical behavior for rotation
           may cause significant error
 Rotational temperatures (Kelvin)      0.12149     0.02583     0.02254
 Rotational constants (GHZ):           2.53135     0.53816     0.46967
 Zero-point vibrational energy     367913.1 (Joules/Mol)
                                   87.93335 (Kcal/Mol)
 Warning -- explicit consideration of  13 degrees of freedom as
           vibrations may cause significant error
 Vibrational temperatures:     78.21    98.85   146.32   210.89   267.48
          (Kelvin)            295.25   447.06   512.85   567.53   598.61
                              623.57   715.29   779.60   896.61   916.05
                              967.45  1068.12  1110.36  1156.43  1197.00
                             1251.70  1254.47  1364.25  1372.11  1389.08
                             1497.76  1598.49  1620.79  1649.09  1709.50
                             1723.26  1824.67  1899.31  1910.06  1949.66
                             1993.48  2093.89  2130.01  2142.07  2169.48
                             2194.42  2246.36  2386.81  2405.70  4377.05
                             4501.22  4556.24  4615.00  4660.24  4677.04
                             4682.70

 Zero-point correction=                           0.140131 (Hartree/Particle)
 Thermal correction to Energy=                    0.150383
 Thermal correction to Enthalpy=                  0.151328
 Thermal correction to Gibbs Free Energy=         0.103397
 Sum of electronic and zero-point Energies=           -622.493516
 Sum of electronic and thermal Energies=              -622.483264
 Sum of electronic and thermal Enthalpies=            -622.482319
 Sum of electronic and thermal Free Energies=         -622.530250

                     E (Thermal)             CV                S
                      KCal/Mol        Cal/Mol-Kelvin    Cal/Mol-Kelvin
 Total                   94.367             38.006            100.878
 Electronic               0.000              0.000              0.000
 Translational            0.889              2.981             41.283
 Rotational               0.889              2.981             30.597
 Vibrational             92.590             32.044             28.998
 Vibration     1          0.596              1.976              4.652
 Vibration     2          0.598              1.969              4.190
 Vibration     3          0.604              1.948              3.422
 Vibration     4          0.617              1.906              2.716
 Vibration     5          0.632              1.859              2.268
 Vibration     6          0.640              1.832              2.086
 Vibration     7          0.700              1.653              1.358
 Vibration     8          0.732              1.562              1.138
 Vibration     9          0.761              1.482              0.983
 Vibration    10          0.779              1.435              0.905
 Vibration    11          0.794              1.397              0.848
 Vibration    12          0.853              1.256              0.665
 Vibration    13          0.897              1.158              0.561

 Optimization completed.
    -- Stationary point found.
 Normal termination of Gaussian 09 at Fri Aug 27 03:59:20 2021.

 -----------------------------------------------------------------
 #P Geom=AllCheck Guess=TCheck SCRF=Check CCSD(T,E4T,FrzG4)/GTBas1
 -----------------------------------------------------------------

 Structure from the checkpoint file:  "/public/home/users/caep010/.cache/gau_scr/Gau-22514.chk"
 --------
 HOFDOV01
 --------
 Charge =  0 Multiplicity = 1

 SCF Done:  E(RHF) =  -618.966844297     A.U. after   15 cycles
 E2 =    -0.1828367047D+01 EUMP2 =    -0.62079521134385D+03
 CCSD(T)
 CCSD(T)= -0.62089953456D+03
 Q=-620.8219324\CCSD=-620.8168524\CCSD(T)=-620.8995346\RMSD=8.899e-09\P
 Normal termination of Gaussian 09 at Fri Aug 27 05:04:59 2021.

 ---------------------------------------------------------
 #P Geom=AllCheck Guess=TCheck SCRF=Check MP4=FrzG4/GTBas2
 ---------------------------------------------------------

 Structure from the checkpoint file:  "/public/home/users/caep010/.cache/gau_scr/Gau-22514.chk"
 --------
 HOFDOV01
 --------
 Charge =  0 Multiplicity = 1

 SCF Done:  E(RHF) =  -618.985739358     A.U. after   16 cycles
 E2 =    -0.1853171153D+01 EUMP2 =    -0.62083891051061D+03
 Normal termination of Gaussian 09 at Fri Aug 27 05:28:01 2021.

 ---------------------------------------------------------
 #P Geom=AllCheck Guess=TCheck SCRF=Check MP4=FrzG4/GTBas3
 ---------------------------------------------------------

 Structure from the checkpoint file:  "/public/home/users/caep010/.cache/gau_scr/Gau-22514.chk"
 --------
 HOFDOV01
 --------
 Charge =  0 Multiplicity = 1

 SCF Done:  E(RHF) =  -619.031161655     A.U. after   13 cycles
 E2 =    -0.2185502634D+01 EUMP2 =    -0.62121666428865D+03
 Normal termination of Gaussian 09 at Fri Aug 27 08:32:30 2021.

 -----------------------------------------------------------
 #P Geom=AllCheck Guess=TCheck SCRF=Check MP2=Full/GTLargeXP
 -----------------------------------------------------------

 Structure from the checkpoint file:  "/public/home/users/caep010/.cache/gau_scr/Gau-22514.chk"
 --------
 HOFDOV01
 --------
 Charge =  0 Multiplicity = 1

 SCF Done:  E(RHF) =  -619.186054616     A.U. after   15 cycles
 E2 =    -0.2850177360D+01 EUMP2 =    -0.62203623197539D+03
 Normal termination of Gaussian 09 at Fri Aug 27 08:51:18 2021.
 SCF Done:  E(RHF) =  -619.235501438     A.U. after   11 cycles
 Normal termination of Gaussian 09 at Fri Aug 27 08:57:36 2021.

                         Standard orientation:
 ---------------------------------------------------------------------
 Center     Atomic      Atomic             Coordinates (Angstroms)
 Number     Number       Type             X           Y           Z
 ---------------------------------------------------------------------
      1          8           0       -3.986756   -0.194339   -0.128241
      2          7           0       -2.729039   -0.072467   -0.045660
      3          6           0       -1.956444   -1.067360    0.501474
      4          6           0       -0.590999   -0.952447    0.612794
      5          6           0        0.063053    0.193321    0.147381
      6          7           0        1.461037    0.374363    0.288948
      7          6           0       -2.096054    1.055410   -0.495223
      8          7           0        2.334627   -0.582787   -0.229317
      9          6           0       -0.727195    1.197585   -0.415799
     10          8           0        1.860249   -1.652337   -0.579095
     11          8           0        3.515097   -0.265035   -0.261782
     12          6           0        2.049580    1.678564    0.569876
     13          1           0        2.334949    2.212785   -0.343207
     14          1           0       -0.033309   -1.765420    1.055019
     15          1           0       -2.526713   -1.922031    0.835077
     16          1           0       -0.285087    2.106913   -0.804367
     17          1           0        2.940223    1.548554    1.183882
     18          1           0       -2.765221    1.791879   -0.915725
     19          1           0        1.308411    2.256819    1.121455
 ---------------------------------------------------------------------

 SCF Done:  E(RHF) =  -619.245175549     A.U. after    8 cycles

 The electronic state is 1-A.
 Alpha  occ. eigenvalues --  -20.61454 -20.61270 -20.51665 -15.90333 -15.74353
 Alpha  occ. eigenvalues --  -15.67746 -11.33254 -11.31042 -11.30815 -11.30324
 Alpha  occ. eigenvalues --  -11.28879 -11.28337  -1.64095  -1.46443  -1.42521
 Alpha  occ. eigenvalues --   -1.32708  -1.21791  -1.09788  -1.08753  -1.02627
 Alpha  occ. eigenvalues --   -0.94053  -0.92390  -0.84395  -0.80699  -0.77450
 Alpha  occ. eigenvalues --   -0.76243  -0.73041  -0.72318  -0.68999  -0.66308
 Alpha  occ. eigenvalues --   -0.65448  -0.64447  -0.63474  -0.60948  -0.59668
 Alpha  occ. eigenvalues --   -0.57572  -0.53399  -0.52395  -0.50401  -0.47964
 Alpha  occ. eigenvalues --   -0.44579  -0.43318  -0.39556  -0.32636
 Alpha virt. eigenvalues --    0.02080   0.03400   0.03653   0.03801   0.05017
 Alpha virt. eigenvalues --    0.05353   0.06031   0.06378   0.06761   0.07466
 Alpha virt. eigenvalues --    0.07739   0.07949   0.08565   0.09124   0.09435

 Mulliken charges:
               1
     1  O   -0.652920
     2  N    0.162140
     3  C   -0.111870
     4  C   -0.147581
     5  C    0.265626
     6  N   -0.020512
     7  C   -0.130716
     8  N    0.591179
     9  C   -0.171176
    10  O   -0.434196
    11  O   -0.432815
    12  C   -0.557778
    13  H    0.196483
    14  H    0.240275
    15  H    0.257250
    16  H    0.229265
    17  H    0.234486
    18  H    0.255448
    19  H    0.227412
 Sum of Mulliken charges =  -0.00000

 Dipole moment (field-independent basis, Debye):
    X=              2.4495    Y=              3.6623    Z=              1.6280  Tot=              4.6972
 Quadrupole moment (field-independent basis, Debye-Ang):
   XX=           -103.0267   YY=            -61.7947   ZZ=            -68.2476
   XY=              5.4867   XZ=              2.7924   YZ=             -5.0928

 Normal termination of Gaussian 09 at Fri Aug 27 09:36:52 2021.
