 Gaussian 09, Revision E.01,
 Gaussian 09:  ES64L-G09RevE.01 30-Nov-2015

 ----------------
 #P G4 OPT=calcfc
 ----------------

 ------
 HAWSOO
 ------
 Symbolic Z-matrix:
 Charge =  0 Multiplicity = 1

 SCF Done:  E(RB3LYP) =  -719.788907842     A.U. after   16 cycles
 SCF Done:  E(RB3LYP) =  -719.876189703     A.U. after   13 cycles
 SCF Done:  E(RB3LYP) =  -719.916904002     A.U. after   16 cycles
 SCF Done:  E(RB3LYP) =  -719.917684626     A.U. after   15 cycles
 SCF Done:  E(RB3LYP) =  -719.917832116     A.U. after   14 cycles
 SCF Done:  E(RB3LYP) =  -719.917838460     A.U. after   11 cycles
 SCF Done:  E(RB3LYP) =  -719.917842265     A.U. after   10 cycles
 SCF Done:  E(RB3LYP) =  -719.917842708     A.U. after   10 cycles
 SCF Done:  E(RB3LYP) =  -719.917843076     A.U. after    7 cycles
 Optimization completed.
    -- Stationary point found.
 Normal termination of Gaussian 09 at Wed Aug 25 08:53:53 2021.

 ----------------------------------------------------------
 #P Geom=AllCheck Guess=TCheck SCRF=Check B3LYP/GTBas3 Freq
 ----------------------------------------------------------

 Structure from the checkpoint file:  "/public/home/users/caep010/.cache/gau_scr/Gau-11986.chk"
 ------
 HAWSOO
 ------
 Charge =  0 Multiplicity = 1

 SCF Done:  E(RB3LYP) =  -719.917843076     A.U. after    3 cycles

  Exact polarizability: 143.306  -0.000 129.822   6.161   0.000  69.689
 Approx polarizability: 229.961  -0.003 216.439  34.106  -0.000 143.328

                      1                      2                      3
                      A                      A                      A
 Frequencies --     35.4459                69.7413               105.8194
 Red. masses --     13.7679                 5.8730                 7.3183
 Frc consts  --      0.0102                 0.0168                 0.0483
 IR Inten    --      0.0571                 0.1419                 0.1499

                      4                      5                      6
                      A                      A                      A
 Frequencies --    126.9257               152.0261               153.9725
 Red. masses --      2.3778                 1.1023                 1.1727
 Frc consts  --      0.0226                 0.0150                 0.0164
 IR Inten    --      1.1860                 0.2057                 0.0769

                      7                      8                      9
                      A                      A                      A
 Frequencies --    174.7593               183.8863               237.8815
 Red. masses --      6.0927                14.0033                 4.8458
 Frc consts  --      0.1096                 0.2790                 0.1616
 IR Inten    --      0.2509                 0.8530                 3.7248

                     10                     11                     12
                      A                      A                      A
 Frequencies --    288.1773               305.6549               322.3735
 Red. masses --      3.7258                 3.3715                10.9476
 Frc consts  --      0.1823                 0.1856                 0.6703
 IR Inten    --      0.0664                 4.4297                 3.1376

                     13                     14                     15
                      A                      A                      A
 Frequencies --    369.2756               416.9690               427.4138
 Red. masses --      5.9995                 3.8084                 5.7507
 Frc consts  --      0.4820                 0.3901                 0.6190
 IR Inten    --      0.0050                 0.7164                 0.5506

                     16                     17                     18
                      A                      A                      A
 Frequencies --    490.3657               499.7393               579.7678
 Red. masses --      5.1373                 3.5906                 4.6889
 Frc consts  --      0.7278                 0.5283                 0.9286
 IR Inten    --      3.3446                 5.3315                 1.9177

                     19                     20                     21
                      A                      A                      A
 Frequencies --    633.7788               713.9348               714.8988
 Red. masses --      5.1739                 6.3798                 7.8893
 Frc consts  --      1.2245                 1.9159                 2.3756
 IR Inten    --      1.6515                 1.9163                 0.2564

                     22                     23                     24
                      A                      A                      A
 Frequencies --    739.4867               808.4551               812.1191
 Red. masses --      8.3389                 8.2811                 8.1163
 Frc consts  --      2.6867                 3.1890                 3.1539
 IR Inten    --     19.4214                 0.3599                 8.5904

                     25                     26                     27
                      A                      A                      A
 Frequencies --    822.8309               839.5831               926.7033
 Red. masses --     10.4996                 1.2604                 6.8740
 Frc consts  --      4.1884                 0.5235                 3.4781
 IR Inten    --     47.6162                14.2137                 4.4829

                     28                     29                     30
                      A                      A                      A
 Frequencies --    948.1236               960.2817              1043.7865
 Red. masses --      2.8831                 1.3283                 1.9175
 Frc consts  --      1.5270                 0.7217                 1.2308
 IR Inten    --     10.5596                 0.3912                 0.1144

                     31                     32                     33
                      A                      A                      A
 Frequencies --   1048.1794              1059.9618              1064.9447
 Red. masses --      1.4694                 1.5263                 1.5315
 Frc consts  --      0.9512                 1.0104                 1.0234
 IR Inten    --      3.0046                 0.4167                 4.7784

                     34                     35                     36
                      A                      A                      A
 Frequencies --   1161.8779              1193.0840              1253.8341
 Red. masses --      5.9055                 1.3569                 5.2456
 Frc consts  --      4.6970                 1.1380                 4.8588
 IR Inten    --      1.4919                 2.6916                 4.8915

                     37                     38                     39
                      A                      A                      A
 Frequencies --   1282.3192              1329.2443              1404.1393
 Red. masses --      1.7212                 7.2246                13.3363
 Frc consts  --      1.6675                 7.5210                15.4920
 IR Inten    --      0.7591                10.4434                87.4227

                     40                     41                     42
                      A                      A                      A
 Frequencies --   1413.2392              1419.1278              1420.5468
 Red. masses --      2.8010                 1.2318                 1.9574
 Frc consts  --      3.2961                 1.4617                 2.3272
 IR Inten    --    110.0085                 1.6118                 1.7985

                     43                     44                     45
                      A                      A                      A
 Frequencies --   1426.2460              1475.2998              1482.6026
 Red. masses --      2.9697                 1.1031                 1.0578
 Frc consts  --      3.5592                 1.4146                 1.3699
 IR Inten    --     99.0424                 9.2028                 3.1439

                     46                     47                     48
                      A                      A                      A
 Frequencies --   1487.0302              1495.8373              1514.3198
 Red. masses --      1.0632                 1.1376                 3.2647
 Frc consts  --      1.3852                 1.4997                 4.4109
 IR Inten    --      7.8244                29.8942                12.5703

                     49                     50                     51
                      A                      A                      A
 Frequencies --   1593.0017              1637.8384              1646.9518
 Red. masses --      5.4623                10.3445                13.1481
 Frc consts  --      8.1669                16.3495                21.0124
 IR Inten    --     16.6082                24.7202               432.1787

                     52                     53                     54
                      A                      A                      A
 Frequencies --   1662.8772              3052.8739              3052.9320
 Red. masses --      9.5946                 1.0357                 1.0357
 Frc consts  --     15.6314                 5.6870                 5.6874
 IR Inten    --      8.0791                 2.2739                19.5582

                     55                     56                     57
                      A                      A                      A
 Frequencies --   3117.5144              3117.5561              3132.4312
 Red. masses --      1.0998                 1.0998                 1.1029
 Frc consts  --      6.2976                 6.2977                 6.3758
 IR Inten    --      3.8646                 6.2805                 4.8582

                     58                     59                     60
                      A                      A                      A
 Frequencies --   3132.4699              3179.7232              3195.3434
 Red. masses --      1.1028                 1.0867                 1.0946
 Frc consts  --      6.3759                 6.4732                 6.5846
 IR Inten    --     15.8049                 4.3833                 8.9872

 - Thermochemistry -
 -------------------
 Temperature   298.150 Kelvin.  Pressure   1.00000 Atm.
 Atom     1 has atomic number  8 and mass  15.99491

 Molecular mass:   196.04841 amu.
 Principal axes and moments of inertia in atomic units:
                           1         2         3
     Eigenvalues --  1921.076222375.661903940.10031
           X            0.99999   0.00001  -0.00405
           Y           -0.00001   1.00000  -0.00000
           Z            0.00405   0.00000   0.99999
 This molecule is an asymmetric top.
 Rotational symmetry number  1.
 Warning -- assumption of classical behavior for rotation
           may cause significant error
 Rotational temperatures (Kelvin)      0.04509     0.03646     0.02198
 Rotational constants (GHZ):           0.93944     0.75968     0.45804
 Zero-point vibrational energy     420831.5 (Joules/Mol)
                                  100.58113 (Kcal/Mol)
 Warning -- explicit consideration of  18 degrees of freedom as
           vibrations may cause significant error
 Vibrational temperatures:     51.00   100.34   152.25   182.62   218.73
          (Kelvin)            221.53   251.44   264.57   342.26   414.62
                              439.77   463.82   531.30   599.92   614.95
                              705.53   719.01   834.16   911.87  1027.19
                             1028.58  1063.96  1163.19  1168.46  1183.87
                             1207.97  1333.32  1364.14  1381.63  1501.77
                             1508.09  1525.05  1532.22  1671.68  1716.58
                             1803.99  1844.97  1912.48  2020.24  2033.33
                             2041.81  2043.85  2052.05  2122.62  2133.13
                             2139.50  2152.17  2178.77  2291.97  2356.48
                             2369.59  2392.51  4392.40  4392.48  4485.40
                             4485.46  4506.86  4506.92  4574.91  4597.38

 Zero-point correction=                           0.160286 (Hartree/Particle)
 Thermal correction to Energy=                    0.173085
 Thermal correction to Enthalpy=                  0.174029
 Thermal correction to Gibbs Free Energy=         0.120531
 Sum of electronic and zero-point Energies=           -719.757557
 Sum of electronic and thermal Energies=              -719.744758
 Sum of electronic and thermal Enthalpies=            -719.743814
 Sum of electronic and thermal Free Energies=         -719.797312

                     E (Thermal)             CV                S
                      KCal/Mol        Cal/Mol-Kelvin    Cal/Mol-Kelvin
 Total                  108.612             46.445            112.595
 Electronic               0.000              0.000              0.000
 Translational            0.889              2.981             41.725
 Rotational               0.889              2.981             31.264
 Vibrational            106.835             40.483             39.606
 Vibration     1          0.594              1.982              5.499
 Vibration     2          0.598              1.969              4.161
 Vibration     3          0.605              1.945              3.344
 Vibration     4          0.611              1.926              2.992
 Vibration     5          0.619              1.900              2.647
 Vibration     6          0.619              1.898              2.623
 Vibration     7          0.627              1.874              2.384
 Vibration     8          0.631              1.862              2.289
 Vibration     9          0.656              1.783              1.819
 Vibration    10          0.685              1.696              1.485
 Vibration    11          0.696              1.663              1.386
 Vibration    12          0.707              1.631              1.298
 Vibration    13          0.742              1.535              1.083
 Vibration    14          0.780              1.433              0.902
 Vibration    15          0.789              1.411              0.867
 Vibration    16          0.846              1.271              0.683
 Vibration    17          0.855              1.251              0.659
 Vibration    18          0.936              1.075              0.486

 Optimization completed.
    -- Stationary point found.
 Normal termination of Gaussian 09 at Wed Aug 25 08:58:09 2021.

 -----------------------------------------------------------------
 #P Geom=AllCheck Guess=TCheck SCRF=Check CCSD(T,E4T,FrzG4)/GTBas1
 -----------------------------------------------------------------

 Structure from the checkpoint file:  "/public/home/users/caep010/.cache/gau_scr/Gau-11986.chk"
 ------
 HAWSOO
 ------
 Charge =  0 Multiplicity = 1

 SCF Done:  E(RHF) =  -715.684048684     A.U. after   15 cycles
 E2 =    -0.2119719892D+01 EUMP2 =    -0.71780376857601D+03
 CCSD(T)
 CCSD(T)= -0.71792187567D+03
 98\CCSD=-717.824286\CCSD(T)=-717.9218757\RMSD=6.035e-09\PG=C01 [X(C8H8
 Normal termination of Gaussian 09 at Wed Aug 25 11:17:31 2021.

 ---------------------------------------------------------
 #P Geom=AllCheck Guess=TCheck SCRF=Check MP4=FrzG4/GTBas2
 ---------------------------------------------------------

 Structure from the checkpoint file:  "/public/home/users/caep010/.cache/gau_scr/Gau-11986.chk"
 ------
 HAWSOO
 ------
 Charge =  0 Multiplicity = 1

 SCF Done:  E(RHF) =  -715.703418251     A.U. after   22 cycles
 E2 =    -0.2149152422D+01 EUMP2 =    -0.71785257067276D+03
 Normal termination of Gaussian 09 at Wed Aug 25 12:17:55 2021.

 ---------------------------------------------------------
 #P Geom=AllCheck Guess=TCheck SCRF=Check MP4=FrzG4/GTBas3
 ---------------------------------------------------------

 Structure from the checkpoint file:  "/public/home/users/caep010/.cache/gau_scr/Gau-11986.chk"
 ------
 HAWSOO
 ------
 Charge =  0 Multiplicity = 1

 SCF Done:  E(RHF) =  -715.758232342     A.U. after   13 cycles
 E2 =    -0.2534111580D+01 EUMP2 =    -0.71829234392128D+03
 Normal termination of Gaussian 09 at Wed Aug 25 20:40:21 2021.

 -----------------------------------------------------------
 #P Geom=AllCheck Guess=TCheck SCRF=Check MP2=Full/GTLargeXP
 -----------------------------------------------------------

 Structure from the checkpoint file:  "/public/home/users/caep010/.cache/gau_scr/Gau-11986.chk"
 ------
 HAWSOO
 ------
 Charge =  0 Multiplicity = 1

 SCF Done:  E(RHF) =  -715.932541774     A.U. after   16 cycles
 E2 =    -0.3307675253D+01 EUMP2 =    -0.71924021702750D+03
 Normal termination of Gaussian 09 at Wed Aug 25 21:00:02 2021.
 SCF Done:  E(RHF) =  -715.990122569     A.U. after   10 cycles
 Normal termination of Gaussian 09 at Wed Aug 25 21:09:44 2021.

                         Standard orientation:
 ---------------------------------------------------------------------
 Center     Atomic      Atomic             Coordinates (Angstroms)
 Number     Number       Type             X           Y           Z
 ---------------------------------------------------------------------
      1          8           0        2.324645   -1.441708    0.690181
      2          7           0        1.414022   -1.257463   -0.101303
      3          8           0        1.063174   -2.025845   -0.983250
      4          6           0        0.697261    0.031035   -0.016130
      5          6           0        1.434728    1.215794   -0.041791
      6          6           0        2.940566    1.253668   -0.101152
      7          6           0       -0.697263    0.030988    0.016152
      8          7           0       -1.413927   -1.257561    0.101300
      9          8           0       -1.062795   -2.026094    0.983003
     10          8           0       -2.324760   -1.441717   -0.689969
     11          6           0       -1.434821    1.215694    0.041804
     12          6           0       -0.693222    2.400947    0.024762
     13          1           0       -1.225552    3.345935    0.051901
     14          6           0        0.693046    2.400995   -0.024716
     15          1           0        3.378168    0.949064    0.852962
     16          1           0        3.278090    2.265733   -0.334696
     17          1           0        3.338055    0.575932   -0.861835
     18          1           0        1.225317    3.346020   -0.051835
     19          6           0       -2.940666    1.253450    0.101129
     20          1           0       -3.378212    0.949062   -0.853081
     21          1           0       -3.278269    2.265434    0.334924
     22          1           0       -3.338138    0.575482    0.861613
 ---------------------------------------------------------------------

 SCF Done:  E(RHF) =  -716.001235429     A.U. after    7 cycles

 The electronic state is 1-A.
 Alpha  occ. eigenvalues --  -20.61530 -20.61530 -20.61478 -20.61478 -15.86654
 Alpha  occ. eigenvalues --  -15.86654 -11.34232 -11.34112 -11.30076 -11.30074
 Alpha  occ. eigenvalues --  -11.28284 -11.28156 -11.25399 -11.25399  -1.62541
 Alpha  occ. eigenvalues --   -1.61759  -1.41749  -1.41484  -1.23579  -1.13216
 Alpha  occ. eigenvalues --   -1.11994  -1.03110  -1.01691  -0.94444  -0.93117
 Alpha  occ. eigenvalues --   -0.84910  -0.84100  -0.78710  -0.77620  -0.75160
 Alpha  occ. eigenvalues --   -0.74151  -0.73997  -0.71698  -0.68697  -0.67202
 Alpha  occ. eigenvalues --   -0.61810  -0.61193  -0.60128  -0.59220  -0.57048
 Alpha  occ. eigenvalues --   -0.56954  -0.55067  -0.53941  -0.51408  -0.50935
 Alpha  occ. eigenvalues --   -0.50569  -0.49872  -0.47082  -0.45764  -0.39550
 Alpha  occ. eigenvalues --   -0.37190
 Alpha virt. eigenvalues --    0.02115   0.02868   0.03000   0.04239   0.04477
 Alpha virt. eigenvalues --    0.05378   0.05661   0.05785   0.05978   0.07101
 Alpha virt. eigenvalues --    0.07654   0.07922   0.08260   0.08773   0.08823

 Mulliken charges:
               1
     1  O   -0.407264
     2  N    0.481393
     3  O   -0.409086
     4  C    0.187404
     5  C    0.222638
     6  C   -0.689859
     7  C    0.187451
     8  N    0.481372
     9  O   -0.409091
    10  O   -0.407262
    11  C    0.222622
    12  C   -0.210707
    13  H    0.213671
    14  C   -0.210693
    15  H    0.221446
    16  H    0.180054
    17  H    0.210286
    18  H    0.213670
    19  C   -0.689806
    20  H    0.221424
    21  H    0.180058
    22  H    0.210277
 Sum of Mulliken charges =  -0.00000

 Dipole moment (field-independent basis, Debye):
    X=             -0.0002    Y=              7.7423    Z=              0.0000  Tot=              7.7423
 Quadrupole moment (field-independent basis, Debye-Ang):
   XX=            -77.6737   YY=            -83.0362   ZZ=            -85.4331
   XY=              0.0009   XZ=             -3.0666   YZ=             -0.0000

 Normal termination of Gaussian 09 at Wed Aug 25 22:07:51 2021.
