 Gaussian 09, Revision E.01,
 Gaussian 09:  ES64L-G09RevE.01 30-Nov-2015

 ----------------
 #P G4 OPT=calcfc
 ----------------

 ------
 IJIVEC
 ------
 Symbolic Z-matrix:
 Charge =  0 Multiplicity = 1

 SCF Done:  E(RB3LYP) =  -583.205586945     A.U. after   16 cycles
 SCF Done:  E(RB3LYP) =  -583.288052780     A.U. after   15 cycles
 SCF Done:  E(RB3LYP) =  -583.307602742     A.U. after   17 cycles
 SCF Done:  E(RB3LYP) =  -583.302983584     A.U. after   14 cycles
 SCF Done:  E(RB3LYP) =  -583.314729868     A.U. after   12 cycles
 SCF Done:  E(RB3LYP) =  -583.323692313     A.U. after   14 cycles
 SCF Done:  E(RB3LYP) =  -583.325712336     A.U. after   16 cycles
 SCF Done:  E(RB3LYP) =  -583.326321614     A.U. after   14 cycles
 SCF Done:  E(RB3LYP) =  -583.326404078     A.U. after   12 cycles
 SCF Done:  E(RB3LYP) =  -583.326421183     A.U. after   12 cycles
 SCF Done:  E(RB3LYP) =  -583.326423584     A.U. after    9 cycles
 Optimization completed.
    -- Stationary point found.
 Normal termination of Gaussian 09 at Wed Aug 25 08:44:58 2021.

 ----------------------------------------------------------
 #P Geom=AllCheck Guess=TCheck SCRF=Check B3LYP/GTBas3 Freq
 ----------------------------------------------------------

 Structure from the checkpoint file:  "/public/home/users/caep010/.cache/gau_scr/Gau-218662.chk"
 ------
 IJIVEC
 ------
 Charge =  0 Multiplicity = 1

 SCF Done:  E(RB3LYP) =  -583.326423584     A.U. after    1 cycles

  Exact polarizability: 143.570   7.432  96.736   0.012  -0.000  37.158
 Approx polarizability: 242.715  20.618 187.830   0.039   0.018  60.894

                      1                      2                      3
                      A                      A                      A
 Frequencies --     47.9566                92.8802               191.3272
 Red. masses --     12.2381                 6.1883                 6.8951
 Frc consts  --      0.0166                 0.0315                 0.1487
 IR Inten    --      0.2419                 0.0427                 0.2583

                      4                      5                      6
                      A                      A                      A
 Frequencies --    191.7179               289.6204               324.1978
 Red. masses --      7.3074                 5.6903                 8.8828
 Frc consts  --      0.1582                 0.2812                 0.5501
 IR Inten    --      2.5340                 0.0727                 4.4101

                      7                      8                      9
                      A                      A                      A
 Frequencies --    403.9300               429.7634               512.5885
 Red. masses --      9.4389                 3.4454                 5.0477
 Frc consts  --      0.9074                 0.3749                 0.7814
 IR Inten    --      1.0267                 7.3067                12.0132

                     10                     11                     12
                      A                      A                      A
 Frequencies --    548.4499               567.4321               666.2704
 Red. masses --      3.4147                 7.7707                 7.6843
 Frc consts  --      0.6052                 1.4741                 2.0098
 IR Inten    --      7.9199                 0.4722                 0.2550

                     13                     14                     15
                      A                      A                      A
 Frequencies --    675.5000               737.0237               769.4840
 Red. masses --      1.1003                 4.6714                 1.2612
 Frc consts  --      0.2958                 1.4951                 0.4400
 IR Inten    --     63.1184                 2.5477                61.8449

                     16                     17                     18
                      A                      A                      A
 Frequencies --    775.6452               794.5502               837.9562
 Red. masses --      9.3641                12.3790                 6.9509
 Frc consts  --      3.3193                 4.6044                 2.8756
 IR Inten    --     16.6607                10.5664                 6.0142

                     19                     20                     21
                      A                      A                      A
 Frequencies --    876.0921               892.3552               934.9429
 Red. masses --      1.4093                 8.8087                 1.2963
 Frc consts  --      0.6373                 4.1327                 0.6676
 IR Inten    --      7.0342                20.4556                 1.8172

                     22                     23                     24
                      A                      A                      A
 Frequencies --   1006.5007              1034.2539              1058.9706
 Red. masses --      1.2846                 6.8492                 2.1521
 Frc consts  --      0.7667                 4.3166                 1.4219
 IR Inten    --      0.4014                72.9583                15.6096

                     25                     26                     27
                      A                      A                      A
 Frequencies --   1141.7075              1172.7511              1226.7055
 Red. masses --      1.6958                 1.1335                 3.3906
 Frc consts  --      1.3023                 0.9185                 3.0061
 IR Inten    --     12.2044                57.4581                29.4343

                     28                     29                     30
                      A                      A                      A
 Frequencies --   1268.7436              1292.8034              1340.2233
 Red. masses --      4.8432                 2.1349                 4.5879
 Frc consts  --      4.5933                 2.1023                 4.8554
 IR Inten    --     21.8324               172.5487               705.3765

                     31                     32                     33
                      A                      A                      A
 Frequencies --   1383.5970              1477.8114              1536.5098
 Red. masses --      2.3087                 2.1382                 4.1739
 Frc consts  --      2.6040                 2.7513                 5.8057
 IR Inten    --     27.5671                61.2527               465.5484

                     34                     35                     36
                      A                      A                      A
 Frequencies --   1552.9516              1618.8885              1638.9834
 Red. masses --      2.9614                 6.7255                 2.5529
 Frc consts  --      4.2079                10.3851                 4.0405
 IR Inten    --     30.2796               108.4813               200.6356

                     37                     38                     39
                      A                      A                      A
 Frequencies --   1668.4691              3171.5750              3193.8551
 Red. masses --      6.3447                 1.0632                 1.0898
 Frc consts  --     10.4063                 6.3011                 6.5500
 IR Inten    --    178.4806               205.1578                 5.5916

                     40                     41                     42
                      A                      A                      A
 Frequencies --   3231.3172              3248.9340              3286.9600
 Red. masses --      1.0899                 1.0973                 1.0913
 Frc consts  --      6.7050                 6.8243                 6.9468
 IR Inten    --      0.3043                 1.3212                11.9160

 - Thermochemistry -
 -------------------
 Temperature   298.150 Kelvin.  Pressure   1.00000 Atm.
 Atom     1 has atomic number  8 and mass  15.99491

 Molecular mass:   155.03309 amu.
 Principal axes and moments of inertia in atomic units:
                           1         2         3
     Eigenvalues --   774.672002176.774622951.44603
           X            0.99993   0.01206   0.00000
           Y           -0.01206   0.99993  -0.00003
           Z           -0.00000   0.00003   1.00000
 This molecule is an asymmetric top.
 Rotational symmetry number  1.
 Warning -- assumption of classical behavior for rotation
           may cause significant error
 Rotational temperatures (Kelvin)      0.11181     0.03979     0.02935
 Rotational constants (GHZ):           2.32968     0.82909     0.61148
 Zero-point vibrational energy     293756.2 (Joules/Mol)
                                   70.20941 (Kcal/Mol)
 Warning -- explicit consideration of  11 degrees of freedom as
           vibrations may cause significant error
 Vibrational temperatures:     69.00   133.63   275.28   275.84   416.70
          (Kelvin)            466.45   581.16   618.33   737.50   789.10
                              816.41   958.61   971.89  1060.41  1107.11
                             1115.98  1143.18  1205.63  1260.50  1283.90
                             1345.17  1448.13  1488.06  1523.62  1642.66
                             1687.33  1764.95  1825.44  1860.05  1928.28
                             1990.68  2126.24  2210.69  2234.35  2329.22
                             2358.13  2400.55  4563.18  4595.24  4649.14
                             4674.49  4729.20

 Zero-point correction=                           0.111886 (Hartree/Particle)
 Thermal correction to Energy=                    0.120497
 Thermal correction to Enthalpy=                  0.121442
 Thermal correction to Gibbs Free Energy=         0.077278
 Sum of electronic and zero-point Energies=           -583.214538
 Sum of electronic and thermal Energies=              -583.205926
 Sum of electronic and thermal Enthalpies=            -583.204982
 Sum of electronic and thermal Free Energies=         -583.249146

                     E (Thermal)             CV                S
                      KCal/Mol        Cal/Mol-Kelvin    Cal/Mol-Kelvin
 Total                   75.613             32.514             92.951
 Electronic               0.000              0.000              0.000
 Translational            0.889              2.981             41.025
 Rotational               0.889              2.981             29.988
 Vibrational             73.836             26.552             21.938
 Vibration     1          0.595              1.978              4.900
 Vibration     2          0.602              1.954              3.598
 Vibration     3          0.634              1.852              2.215
 Vibration     4          0.634              1.851              2.211
 Vibration     5          0.686              1.693              1.476
 Vibration     6          0.709              1.627              1.289
 Vibration     7          0.769              1.462              0.948
 Vibration     8          0.791              1.405              0.859
 Vibration     9          0.868              1.222              0.627
 Vibration    10          0.904              1.143              0.547
 Vibration    11          0.923              1.102              0.509

 Normal termination of Gaussian 09 at Wed Aug 25 08:46:38 2021.

 -----------------------------------------------------------------
 #P Geom=AllCheck Guess=TCheck SCRF=Check CCSD(T,E4T,FrzG4)/GTBas1
 -----------------------------------------------------------------

 Structure from the checkpoint file:  "/public/home/users/caep010/.cache/gau_scr/Gau-218662.chk"
 ------
 IJIVEC
 ------
 Charge =  0 Multiplicity = 1

 SCF Done:  E(RHF) =  -579.950081923     A.U. after   15 cycles
 E2 =    -0.1679664269D+01 EUMP2 =    -0.58162974619222D+03
 CCSD(T)
 CCSD(T)= -0.58172339447D+03
 DQ=-581.6517654\CCSD=-581.6482471\CCSD(T)=-581.7233945\RMSD=7.474e-09\
 Normal termination of Gaussian 09 at Wed Aug 25 09:23:15 2021.

 ---------------------------------------------------------
 #P Geom=AllCheck Guess=TCheck SCRF=Check MP4=FrzG4/GTBas2
 ---------------------------------------------------------

 Structure from the checkpoint file:  "/public/home/users/caep010/.cache/gau_scr/Gau-218662.chk"
 ------
 IJIVEC
 ------
 Charge =  0 Multiplicity = 1

 SCF Done:  E(RHF) =  -579.968307796     A.U. after   14 cycles
 E2 =    -0.1701876269D+01 EUMP2 =    -0.58167018406462D+03
 Normal termination of Gaussian 09 at Wed Aug 25 09:36:12 2021.

 ---------------------------------------------------------
 #P Geom=AllCheck Guess=TCheck SCRF=Check MP4=FrzG4/GTBas3
 ---------------------------------------------------------

 Structure from the checkpoint file:  "/public/home/users/caep010/.cache/gau_scr/Gau-218662.chk"
 ------
 IJIVEC
 ------
 Charge =  0 Multiplicity = 1

 SCF Done:  E(RHF) =  -580.013117646     A.U. after   13 cycles
 E2 =    -0.2004614468D+01 EUMP2 =    -0.58201773211410D+03
 Normal termination of Gaussian 09 at Wed Aug 25 10:54:49 2021.

 -----------------------------------------------------------
 #P Geom=AllCheck Guess=TCheck SCRF=Check MP2=Full/GTLargeXP
 -----------------------------------------------------------

 Structure from the checkpoint file:  "/public/home/users/caep010/.cache/gau_scr/Gau-218662.chk"
 ------
 IJIVEC
 ------
 Charge =  0 Multiplicity = 1

 SCF Done:  E(RHF) =  -580.160918445     A.U. after   15 cycles
 E2 =    -0.2617292941D+01 EUMP2 =    -0.58277821138566D+03
 Normal termination of Gaussian 09 at Wed Aug 25 11:06:31 2021.
 SCF Done:  E(RHF) =  -580.208495570     A.U. after   10 cycles
 Normal termination of Gaussian 09 at Wed Aug 25 11:10:42 2021.

                         Standard orientation:
 ---------------------------------------------------------------------
 Center     Atomic      Atomic             Coordinates (Angstroms)
 Number     Number       Type             X           Y           Z
 ---------------------------------------------------------------------
      1          8           0       -0.687580    2.231667   -0.000346
      2          7           0       -1.081988    0.922485   -0.000195
      3          6           0       -0.075877   -0.032712    0.000261
      4          6           0       -2.401430    0.668654   -0.000347
      5          6           0       -2.841340   -0.630405   -0.000234
      6          6           0       -0.530798   -1.376424    0.000810
      7          7           0        1.112088    0.575926    0.000836
      8          7           0        2.275756   -0.157951   -0.000049
      9          8           0        3.298094    0.509792    0.000673
     10          8           0        2.245132   -1.392128   -0.001698
     11          6           0       -1.879645   -1.654724    0.000439
     12          1           0        0.306441    2.106870    0.000077
     13          1           0        0.217627   -2.150895    0.001465
     14          1           0       -2.201444   -2.690631    0.000858
     15          1           0       -3.902654   -0.836364   -0.000437
     16          1           0       -3.031596    1.546816   -0.000711
 ---------------------------------------------------------------------

 SCF Done:  E(RHF) =  -580.217584159     A.U. after    7 cycles

 The electronic state is 1-A.
 Alpha  occ. eigenvalues --  -20.64323 -20.57661 -20.57437 -15.86225 -15.73239
 Alpha  occ. eigenvalues --  -15.60003 -11.38565 -11.34528 -11.30461 -11.27853
 Alpha  occ. eigenvalues --  -11.27326  -1.59760  -1.51464  -1.37960  -1.29634
 Alpha  occ. eigenvalues --   -1.24933  -1.12416  -1.08981  -0.96977  -0.91258
 Alpha  occ. eigenvalues --   -0.86044  -0.78639  -0.77701  -0.75243  -0.72683
 Alpha  occ. eigenvalues --   -0.70765  -0.69771  -0.69736  -0.67903  -0.64060
 Alpha  occ. eigenvalues --   -0.61054  -0.56851  -0.55214  -0.52786  -0.48647
 Alpha  occ. eigenvalues --   -0.48514  -0.45470  -0.44383  -0.42723  -0.34315
 Alpha virt. eigenvalues --    0.02130   0.03255   0.03448   0.04544   0.04801
 Alpha virt. eigenvalues --    0.05784   0.06025   0.06570   0.06796   0.07505
 Alpha virt. eigenvalues --    0.07743   0.08420   0.08889   0.09941   0.09982

 Mulliken charges:
               1
     1  O   -0.484503
     2  N    0.021324
     3  C    0.440779
     4  C   -0.043247
     5  C   -0.217164
     6  C   -0.192895
     7  N   -0.527846
     8  N    0.559724
     9  O   -0.422558
    10  O   -0.470237
    11  C   -0.104822
    12  H    0.453085
    13  H    0.279432
    14  H    0.231821
    15  H    0.229359
    16  H    0.247748
 Sum of Mulliken charges =  -0.00000

 Dipole moment (field-independent basis, Debye):
    X=             -8.2679    Y=             -0.8658    Z=              0.0013  Tot=              8.3131
 Quadrupole moment (field-independent basis, Debye-Ang):
   XX=            -67.9501   YY=            -61.2123   ZZ=            -64.1674
   XY=              3.4141   XZ=              0.0032   YZ=             -0.0105

 Normal termination of Gaussian 09 at Wed Aug 25 11:36:31 2021.
