 Gaussian 09, Revision E.01,
 Gaussian 09:  ES64L-G09RevE.01 30-Nov-2015

 ----------------
 #P G4 OPT=calcfc
 ----------------

 ------
 IJIVIG
 ------
 Symbolic Z-matrix:
 Charge =  0 Multiplicity = 1

 SCF Done:  E(RB3LYP) =  -583.270250295     A.U. after   16 cycles
 SCF Done:  E(RB3LYP) =  -583.313387165     A.U. after   13 cycles
 SCF Done:  E(RB3LYP) =  -583.320250870     A.U. after   14 cycles
 SCF Done:  E(RB3LYP) =  -583.320758324     A.U. after   13 cycles
 SCF Done:  E(RB3LYP) =  -583.320853235     A.U. after   13 cycles
 SCF Done:  E(RB3LYP) =  -583.320869283     A.U. after   11 cycles
 SCF Done:  E(RB3LYP) =  -583.320872708     A.U. after   11 cycles
 SCF Done:  E(RB3LYP) =  -583.320872993     A.U. after    8 cycles
 SCF Done:  E(RB3LYP) =  -583.320873090     A.U. after    8 cycles
 Optimization completed.
    -- Stationary point found.
 Normal termination of Gaussian 09 at Thu Aug 26 09:23:17 2021.

 ----------------------------------------------------------
 #P Geom=AllCheck Guess=TCheck SCRF=Check B3LYP/GTBas3 Freq
 ----------------------------------------------------------

 Structure from the checkpoint file:  "/public/home/users/caep010/.cache/gau_scr/Gau-77655.chk"
 ------
 IJIVIG
 ------
 Charge =  0 Multiplicity = 1

 SCF Done:  E(RB3LYP) =  -583.320873090     A.U. after    1 cycles

  Exact polarizability: 129.978   5.943 102.841  -2.811   1.117  39.849
 Approx polarizability: 212.672  35.909 218.776  -6.122   0.217  66.818

                      1                      2                      3
                      A                      A                      A
 Frequencies --     38.2379                75.7976               142.6369
 Red. masses --      6.7732                10.7323                 9.5688
 Frc consts  --      0.0058                 0.0363                 0.1147
 IR Inten    --      0.6807                 0.7204                 2.0463

                      4                      5                      6
                      A                      A                      A
 Frequencies --    215.9641               267.4120               326.7050
 Red. masses --      4.9288                 6.2027                 8.0214
 Frc consts  --      0.1354                 0.2613                 0.5044
 IR Inten    --      2.8807                 0.7089                 1.2410

                      7                      8                      9
                      A                      A                      A
 Frequencies --    389.8780               462.8365               515.0472
 Red. masses --      9.7544                 3.2135                 5.9435
 Frc consts  --      0.8736                 0.4056                 0.9289
 IR Inten    --      0.8074                 1.4735                 9.9037

                     10                     11                     12
                      A                      A                      A
 Frequencies --    549.6045               569.9172               630.4827
 Red. masses --      4.2807                 1.4801                 4.7567
 Frc consts  --      0.7618                 0.2832                 1.1140
 IR Inten    --     19.1841                67.0179                 0.1553

                     13                     14                     15
                      A                      A                      A
 Frequencies --    662.8179               694.8641               770.8873
 Red. masses --      7.1492                 1.9677                 9.8641
 Frc consts  --      1.8505                 0.5598                 3.4537
 IR Inten    --      4.3577                13.7875                23.0899

                     16                     17                     18
                      A                      A                      A
 Frequencies --    780.3872               786.2071               830.3053
 Red. masses --      2.1629                 3.2353                 4.5869
 Frc consts  --      0.7761                 1.1783                 1.8631
 IR Inten    --     55.7185                 2.1941                12.1068

                     19                     20                     21
                      A                      A                      A
 Frequencies --    870.0945               889.7161               959.6828
 Red. masses --      1.4553                 1.6714                 1.2616
 Frc consts  --      0.6491                 0.7795                 0.6846
 IR Inten    --      0.4843                26.1225                 0.1244

                     22                     23                     24
                      A                      A                      A
 Frequencies --   1006.3789              1021.4562              1037.8496
 Red. masses --      4.7235                 5.0143                 2.7216
 Frc consts  --      2.8186                 3.0825                 1.7272
 IR Inten    --     54.9437                30.6110                50.1216

                     25                     26                     27
                      A                      A                      A
 Frequencies --   1118.3155              1183.7584              1218.0671
 Red. masses --      1.5736                 1.1163                 2.9284
 Frc consts  --      1.1595                 0.9216                 2.5599
 IR Inten    --      3.5311                34.6692               117.3514

                     28                     29                     30
                      A                      A                      A
 Frequencies --   1273.2821              1308.7848              1359.7102
 Red. masses --      3.6557                 1.5246                 9.7121
 Frc consts  --      3.4920                 1.5387                10.5792
 IR Inten    --     11.3830                 5.2640               432.7803

                     31                     32                     33
                      A                      A                      A
 Frequencies --   1377.4588              1434.4946              1496.7728
 Red. masses --      2.3795                 2.6483                 2.4858
 Frc consts  --      2.6601                 3.2108                 3.2811
 IR Inten    --     69.3748               135.0495                92.3786

                     34                     35                     36
                      A                      A                      A
 Frequencies --   1524.4071              1583.3784              1658.8906
 Red. masses --      3.2273                 5.5336                 6.0459
 Frc consts  --      4.4186                 8.1738                 9.8027
 IR Inten    --     30.1112                44.6376               101.4400

                     37                     38                     39
                      A                      A                      A
 Frequencies --   1707.8977              3197.8577              3212.8975
 Red. masses --      5.9086                 1.0875                 1.0945
 Frc consts  --     10.1546                 6.5524                 6.6566
 IR Inten    --    256.2529                 2.7345                 2.1148

                     40                     41                     42
                      A                      A                      A
 Frequencies --   3258.1115              3302.6445              3612.1488
 Red. masses --      1.0943                 1.0926                 1.0774
 Frc consts  --      6.8443                 7.0216                 8.2822
 IR Inten    --      1.1513                10.3409                52.4736

 - Thermochemistry -
 -------------------
 Temperature   298.150 Kelvin.  Pressure   1.00000 Atm.
 Atom     1 has atomic number  8 and mass  15.99491

 Molecular mass:   155.03309 amu.
 Principal axes and moments of inertia in atomic units:
                           1         2         3
     Eigenvalues --   731.963932547.810053227.92865
           X            0.99995  -0.00923  -0.00407
           Y            0.00926   0.99994   0.00618
           Z            0.00401  -0.00622   0.99997
 This molecule is an asymmetric top.
 Rotational symmetry number  1.
 Warning -- assumption of classical behavior for rotation
           may cause significant error
 Rotational temperatures (Kelvin)      0.11833     0.03400     0.02683
 Rotational constants (GHZ):           2.46561     0.70835     0.55910
 Zero-point vibrational energy     295023.3 (Joules/Mol)
                                   70.51226 (Kcal/Mol)
 Warning -- explicit consideration of  11 degrees of freedom as
           vibrations may cause significant error
 Vibrational temperatures:     55.02   109.06   205.22   310.72   384.75
          (Kelvin)            470.06   560.95   665.92   741.04   790.76
                              819.98   907.12   953.65   999.75  1109.13
                             1122.80  1131.18  1194.62  1251.87  1280.10
                             1380.77  1447.95  1469.65  1493.23  1609.00
                             1703.16  1752.52  1831.97  1883.05  1956.32
                             1981.85  2063.92  2153.52  2193.28  2278.13
                             2386.77  2457.28  4601.00  4622.64  4687.69
                             4751.76  5197.07

 Zero-point correction=                           0.112368 (Hartree/Particle)
 Thermal correction to Energy=                    0.121132
 Thermal correction to Enthalpy=                  0.122076
 Thermal correction to Gibbs Free Energy=         0.077168
 Sum of electronic and zero-point Energies=           -583.208505
 Sum of electronic and thermal Energies=              -583.199742
 Sum of electronic and thermal Enthalpies=            -583.198797
 Sum of electronic and thermal Free Energies=         -583.243705

                     E (Thermal)             CV                S
                      KCal/Mol        Cal/Mol-Kelvin    Cal/Mol-Kelvin
 Total                   76.011             32.767             94.517
 Electronic               0.000              0.000              0.000
 Translational            0.889              2.981             41.025
 Rotational               0.889              2.981             30.177
 Vibrational             74.234             26.805             23.315
 Vibration     1          0.594              1.982              5.348
 Vibration     2          0.599              1.965              3.997
 Vibration     3          0.616              1.911              2.768
 Vibration     4          0.645              1.817              1.993
 Vibration     5          0.673              1.733              1.613
 Vibration     6          0.710              1.622              1.276
 Vibration     7          0.758              1.492              1.001
 Vibration     8          0.820              1.332              0.758
 Vibration     9          0.870              1.217              0.622
 Vibration    10          0.905              1.141              0.545
 Vibration    11          0.926              1.096              0.504

 Optimization completed.
    -- Stationary point found.
 Normal termination of Gaussian 09 at Thu Aug 26 09:24:55 2021.

 -----------------------------------------------------------------
 #P Geom=AllCheck Guess=TCheck SCRF=Check CCSD(T,E4T,FrzG4)/GTBas1
 -----------------------------------------------------------------

 Structure from the checkpoint file:  "/public/home/users/caep010/.cache/gau_scr/Gau-77655.chk"
 ------
 IJIVIG
 ------
 Charge =  0 Multiplicity = 1

 SCF Done:  E(RHF) =  -579.936136692     A.U. after   16 cycles
 E2 =    -0.1693783987D+01 EUMP2 =    -0.58162992067848D+03
 CCSD(T)
 CCSD(T)= -0.58171887282D+03
 P4SDQ=-581.6469454\CCSD=-581.6418471\CCSD(T)=-581.7188728\RMSD=3.936e-
 Normal termination of Gaussian 09 at Thu Aug 26 10:03:08 2021.

 ---------------------------------------------------------
 #P Geom=AllCheck Guess=TCheck SCRF=Check MP4=FrzG4/GTBas2
 ---------------------------------------------------------

 Structure from the checkpoint file:  "/public/home/users/caep010/.cache/gau_scr/Gau-77655.chk"
 ------
 IJIVIG
 ------
 Charge =  0 Multiplicity = 1

 SCF Done:  E(RHF) =  -579.955235102     A.U. after   16 cycles
 E2 =    -0.1716582646D+01 EUMP2 =    -0.58167181774788D+03
 Normal termination of Gaussian 09 at Thu Aug 26 10:17:04 2021.

 ---------------------------------------------------------
 #P Geom=AllCheck Guess=TCheck SCRF=Check MP4=FrzG4/GTBas3
 ---------------------------------------------------------

 Structure from the checkpoint file:  "/public/home/users/caep010/.cache/gau_scr/Gau-77655.chk"
 ------
 IJIVIG
 ------
 Charge =  0 Multiplicity = 1

 SCF Done:  E(RHF) =  -579.997920787     A.U. after   13 cycles
 E2 =    -0.2017713106D+01 EUMP2 =    -0.58201563389272D+03
 Normal termination of Gaussian 09 at Thu Aug 26 11:38:10 2021.

 -----------------------------------------------------------
 #P Geom=AllCheck Guess=TCheck SCRF=Check MP2=Full/GTLargeXP
 -----------------------------------------------------------

 Structure from the checkpoint file:  "/public/home/users/caep010/.cache/gau_scr/Gau-77655.chk"
 ------
 IJIVIG
 ------
 Charge =  0 Multiplicity = 1

 SCF Done:  E(RHF) =  -580.146142825     A.U. after   16 cycles
 E2 =    -0.2630243586D+01 EUMP2 =    -0.58277638641087D+03
 Normal termination of Gaussian 09 at Thu Aug 26 11:49:30 2021.
 SCF Done:  E(RHF) =  -580.193163978     A.U. after   10 cycles
 Normal termination of Gaussian 09 at Thu Aug 26 11:53:34 2021.

                         Standard orientation:
 ---------------------------------------------------------------------
 Center     Atomic      Atomic             Coordinates (Angstroms)
 Number     Number       Type             X           Y           Z
 ---------------------------------------------------------------------
      1          8           0       -2.518709   -1.878464   -0.083835
      2          7           0       -1.928596   -0.760718   -0.044013
      3          6           0       -0.571780   -0.690714   -0.227480
      4          6           0        0.089708    0.527321   -0.176160
      5          7           0        1.473276    0.642533   -0.417814
      6          6           0       -0.625516    1.710616    0.038502
      7          7           0        2.442742   -0.240364    0.059272
      8          8           0        3.572716    0.220480    0.080863
      9          8           0        2.095919   -1.365514    0.363370
     10          6           0       -2.001569    1.617265    0.202115
     11          6           0       -2.636565    0.395334    0.167917
     12          1           0        1.874432    1.569887   -0.441396
     13          1           0       -0.098391   -1.641468   -0.397925
     14          1           0       -0.118285    2.666906    0.079332
     15          1           0       -2.597660    2.506094    0.371017
     16          1           0       -3.697130    0.237473    0.294307
 ---------------------------------------------------------------------

 SCF Done:  E(RHF) =  -580.202277708     A.U. after    8 cycles

 The electronic state is 1-A.
 Alpha  occ. eigenvalues --  -20.62710 -20.62276 -20.52275 -15.91481 -15.75229
 Alpha  occ. eigenvalues --  -15.68548 -11.34581 -11.30921 -11.30658 -11.29057
 Alpha  occ. eigenvalues --  -11.28896  -1.65335  -1.47114  -1.43862  -1.32803
 Alpha  occ. eigenvalues --   -1.21974  -1.10303  -1.09049  -0.97253  -0.90933
 Alpha  occ. eigenvalues --   -0.89480  -0.81597  -0.78824  -0.77447  -0.74877
 Alpha  occ. eigenvalues --   -0.72945  -0.71314  -0.66464  -0.65980  -0.65083
 Alpha  occ. eigenvalues --   -0.60172  -0.58229  -0.56064  -0.53629  -0.52293
 Alpha  occ. eigenvalues --   -0.48935  -0.47732  -0.43902  -0.38033  -0.33572
 Alpha virt. eigenvalues --    0.01928   0.03362   0.04113   0.04660   0.05021
 Alpha virt. eigenvalues --    0.05786   0.06078   0.06399   0.07009   0.07469
 Alpha virt. eigenvalues --    0.07812   0.08360   0.08828   0.09624   0.09882

 Mulliken charges:
               1
     1  O   -0.637078
     2  N    0.219958
     3  C   -0.141950
     4  C    0.301861
     5  N   -0.344853
     6  C   -0.207209
     7  N    0.607004
     8  O   -0.434310
     9  O   -0.398510
    10  C   -0.112442
    11  C   -0.174389
    12  H    0.367594
    13  H    0.278524
    14  H    0.196334
    15  H    0.229416
    16  H    0.250050
 Sum of Mulliken charges =  -0.00000

 Dipole moment (field-independent basis, Debye):
    X=             -0.7765    Y=              6.7788    Z=             -0.3496  Tot=              6.8321
 Quadrupole moment (field-independent basis, Debye-Ang):
   XX=            -75.2573   YY=            -63.4590   ZZ=            -64.2873
   XY=             -8.1504   XZ=             -3.3525   YZ=              1.1607

 Normal termination of Gaussian 09 at Thu Aug 26 12:21:49 2021.
