 Gaussian 09, Revision E.01,
 Gaussian 09:  ES64L-G09RevE.01 30-Nov-2015

 ----------------
 #P G4 OPT=calcfc
 ----------------

 ------
 IDEHAD
 ------
 Symbolic Z-matrix:
 Charge =  0 Multiplicity = 1

 SCF Done:  E(RB3LYP) =  -567.276591305     A.U. after   16 cycles
 SCF Done:  E(RB3LYP) =  -567.344809916     A.U. after   15 cycles
 SCF Done:  E(RB3LYP) =  -567.361823893     A.U. after   16 cycles
 SCF Done:  E(RB3LYP) =  -567.356994930     A.U. after   17 cycles
 SCF Done:  E(RB3LYP) =  -567.367422531     A.U. after   13 cycles
 SCF Done:  E(RB3LYP) =  -567.368663208     A.U. after   16 cycles
 SCF Done:  E(RB3LYP) =  -567.368600858     A.U. after   14 cycles
 SCF Done:  E(RB3LYP) =  -567.368829447     A.U. after    9 cycles
 SCF Done:  E(RB3LYP) =  -567.368610928     A.U. after   14 cycles
 SCF Done:  E(RB3LYP) =  -567.368839532     A.U. after   10 cycles
 SCF Done:  E(RB3LYP) =  -567.369163922     A.U. after   11 cycles
 SCF Done:  E(RB3LYP) =  -567.369168854     A.U. after   10 cycles
 SCF Done:  E(RB3LYP) =  -567.369168988     A.U. after    7 cycles
 Optimization completed.
    -- Stationary point found.
 Normal termination of Gaussian 09 at Thu Aug 26 09:25:11 2021.

 ----------------------------------------------------------
 #P Geom=AllCheck Guess=TCheck SCRF=Check B3LYP/GTBas3 Freq
 ----------------------------------------------------------

 Structure from the checkpoint file:  "/public/home/users/caep010/.cache/gau_scr/Gau-206589.chk"
 ------
 IDEHAD
 ------
 Charge =  0 Multiplicity = 1

 SCF Done:  E(RB3LYP) =  -567.369168988     A.U. after    1 cycles

  Exact polarizability: 108.775   1.930 105.802  -1.040   1.962  49.274
 Approx polarizability: 172.388   9.116 191.750  -4.206  14.710  92.519

                      1                      2                      3
                      A                      A                      A
 Frequencies --     64.5615                92.5192               123.9041
 Red. masses --     11.8094                 5.9946                 1.0527
 Frc consts  --      0.0290                 0.0302                 0.0095
 IR Inten    --      0.8557                 1.1937                 0.4510

                      4                      5                      6
                      A                      A                      A
 Frequencies --    189.5982               204.9358               216.3158
 Red. masses --      3.6221                 6.4874                 8.6267
 Frc consts  --      0.0767                 0.1605                 0.2378
 IR Inten    --      2.5135                 0.2928                 0.8326

                      7                      8                      9
                      A                      A                      A
 Frequencies --    307.6428               394.3714               411.9427
 Red. masses --      5.1647                 4.3678                 5.2608
 Frc consts  --      0.2880                 0.4002                 0.5260
 IR Inten    --      1.0974                 3.3544                 6.9833

                     10                     11                     12
                      A                      A                      A
 Frequencies --    486.8955               513.5352               585.4848
 Red. masses --      5.9072                 5.5031                 2.8191
 Frc consts  --      0.8251                 0.8551                 0.5694
 IR Inten    --      8.4453                 0.9417                 4.3905

                     13                     14                     15
                      A                      A                      A
 Frequencies --    589.0074               608.5646               710.0823
 Red. masses --      4.5763                 6.7472                 1.7395
 Frc consts  --      0.9354                 1.4723                 0.5168
 IR Inten    --      8.7406                10.8014                39.7594

                     16                     17                     18
                      A                      A                      A
 Frequencies --    746.9212               774.1443               780.8751
 Red. masses --      4.0805                 6.2242                 1.3204
 Frc consts  --      1.3412                 2.1977                 0.4744
 IR Inten    --     18.0239                29.1631                30.1178

                     19                     20                     21
                      A                      A                      A
 Frequencies --    810.6752               871.4175               941.6623
 Red. masses --      7.8377                 8.1731                 1.2711
 Frc consts  --      3.0348                 3.6567                 0.6641
 IR Inten    --      9.0736                20.7099                 0.0828

                     22                     23                     24
                      A                      A                      A
 Frequencies --    977.6308              1050.1976              1061.2911
 Red. masses --      2.2729                 1.7855                 2.6633
 Frc consts  --      1.2799                 1.1603                 1.7674
 IR Inten    --      1.3259                 5.0919                 9.6572

                     25                     26                     27
                      A                      A                      A
 Frequencies --   1109.5231              1145.9753              1183.5944
 Red. masses --      3.0369                 1.9592                 3.8901
 Frc consts  --      2.2027                 1.5159                 3.2108
 IR Inten    --      2.5969                17.5825                 0.7253

                     28                     29                     30
                      A                      A                      A
 Frequencies --   1239.5863              1311.9865              1404.7051
 Red. masses --      1.2019                 2.9168                 8.6899
 Frc consts  --      1.0881                 2.9581                10.1027
 IR Inten    --     28.2096                 1.0917               196.1872

                     31                     32                     33
                      A                      A                      A
 Frequencies --   1413.6153              1430.4141              1474.1660
 Red. masses --      1.2557                 1.8098                 1.1607
 Frc consts  --      1.4784                 2.1818                 1.4861
 IR Inten    --      3.1731                36.8846                19.5107

                     34                     35                     36
                      A                      A                      A
 Frequencies --   1491.0531              1506.7400              1563.7423
 Red. masses --      1.0933                 2.8941                 4.6187
 Frc consts  --      1.4322                 3.8711                 6.6542
 IR Inten    --      5.9219                 3.3123                72.1151

                     37                     38                     39
                      A                      A                      A
 Frequencies --   1631.3473              1667.4906              1797.9352
 Red. masses --     12.7299                 5.6914                 9.7035
 Frc consts  --     19.9604                 9.3239                18.4810
 IR Inten    --    181.5957                88.3248               511.2200

                     40                     41                     42
                      A                      A                      A
 Frequencies --   3054.9627              3120.3654              3141.6618
 Red. masses --      1.0366                 1.0991                 1.1023
 Frc consts  --      5.6997                 6.3052                 6.4104
 IR Inten    --      6.2061                 8.0294                 8.8512

                     43                     44                     45
                      A                      A                      A
 Frequencies --   3208.0383              3230.1473              3604.4389
 Red. masses --      1.0890                 1.0961                 1.0777
 Frc consts  --      6.6035                 6.7385                 8.2494
 IR Inten    --      0.5397                 2.7589                82.2819

 - Thermochemistry -
 -------------------
 Temperature   298.150 Kelvin.  Pressure   1.00000 Atm.
 Atom     1 has atomic number  8 and mass  15.99491

 Molecular mass:   154.03784 amu.
 Principal axes and moments of inertia in atomic units:
                           1         2         3
     Eigenvalues --  1127.925781511.123802476.63005
           X            0.99937  -0.03561   0.00007
           Y            0.03561   0.99935  -0.00564
           Z            0.00013   0.00564   0.99998
 This molecule is an asymmetric top.
 Rotational symmetry number  1.
 Warning -- assumption of classical behavior for rotation
           may cause significant error
 Rotational temperatures (Kelvin)      0.07679     0.05732     0.03497
 Rotational constants (GHZ):           1.60005     1.19430     0.72871
 Zero-point vibrational energy     324461.1 (Joules/Mol)
                                   77.54807 (Kcal/Mol)
 Warning -- explicit consideration of  14 degrees of freedom as
           vibrations may cause significant error
 Vibrational temperatures:     92.89   133.11   178.27   272.79   294.86
          (Kelvin)            311.23   442.63   567.41   592.69   700.53
                              738.86   842.38   847.45   875.59  1021.65
                             1074.65  1113.82  1123.50  1166.38  1253.77
                             1354.84  1406.59  1511.00  1526.96  1596.35
                             1648.80  1702.93  1783.49  1887.65  2021.05
                             2033.87  2058.04  2120.99  2145.29  2167.86
                             2249.87  2347.14  2399.14  2586.82  4395.40
                             4489.50  4520.14  4615.65  4647.46  5185.98

 Zero-point correction=                           0.123581 (Hartree/Particle)
 Thermal correction to Energy=                    0.133074
 Thermal correction to Enthalpy=                  0.134018
 Thermal correction to Gibbs Free Energy=         0.088344
 Sum of electronic and zero-point Energies=           -567.245588
 Sum of electronic and thermal Energies=              -567.236095
 Sum of electronic and thermal Enthalpies=            -567.235151
 Sum of electronic and thermal Free Energies=         -567.280825

                     E (Thermal)             CV                S
                      KCal/Mol        Cal/Mol-Kelvin    Cal/Mol-Kelvin
 Total                   83.505             34.888             96.128
 Electronic               0.000              0.000              0.000
 Translational            0.889              2.981             41.006
 Rotational               0.889              2.981             29.825
 Vibrational             81.728             28.926             25.298
 Vibration     1          0.597              1.971              4.313
 Vibration     2          0.602              1.955              3.606
 Vibration     3          0.610              1.929              3.039
 Vibration     4          0.633              1.854              2.232
 Vibration     5          0.640              1.833              2.088
 Vibration     6          0.645              1.816              1.990
 Vibration     7          0.698              1.659              1.375
 Vibration     8          0.761              1.482              0.984
 Vibration     9          0.776              1.444              0.920
 Vibration    10          0.843              1.279              0.692
 Vibration    11          0.869              1.220              0.625
 Vibration    12          0.942              1.063              0.475
 Vibration    13          0.946              1.055              0.469
 Vibration    14          0.967              1.014              0.435

 Optimization completed.
    -- Stationary point found.
 Normal termination of Gaussian 09 at Thu Aug 26 09:27:03 2021.

 -----------------------------------------------------------------
 #P Geom=AllCheck Guess=TCheck SCRF=Check CCSD(T,E4T,FrzG4)/GTBas1
 -----------------------------------------------------------------

 Structure from the checkpoint file:  "/public/home/users/caep010/.cache/gau_scr/Gau-206589.chk"
 ------
 IDEHAD
 ------
 Charge =  0 Multiplicity = 1

 SCF Done:  E(RHF) =  -564.057271212     A.U. after   16 cycles
 E2 =    -0.1641050337D+01 EUMP2 =    -0.56569832154898D+03
 CCSD(T)
 CCSD(T)= -0.56579653299D+03
 4SDQ=-565.7297521\CCSD=-565.7241734\CCSD(T)=-565.796533\RMSD=6.511e-09
 Normal termination of Gaussian 09 at Thu Aug 26 10:03:29 2021.

 ---------------------------------------------------------
 #P Geom=AllCheck Guess=TCheck SCRF=Check MP4=FrzG4/GTBas2
 ---------------------------------------------------------

 Structure from the checkpoint file:  "/public/home/users/caep010/.cache/gau_scr/Gau-206589.chk"
 ------
 IDEHAD
 ------
 Charge =  0 Multiplicity = 1

 SCF Done:  E(RHF) =  -564.073685918     A.U. after   16 cycles
 E2 =    -0.1663840687D+01 EUMP2 =    -0.56573752660473D+03
 Normal termination of Gaussian 09 at Thu Aug 26 10:15:51 2021.

 ---------------------------------------------------------
 #P Geom=AllCheck Guess=TCheck SCRF=Check MP4=FrzG4/GTBas3
 ---------------------------------------------------------

 Structure from the checkpoint file:  "/public/home/users/caep010/.cache/gau_scr/Gau-206589.chk"
 ------
 IDEHAD
 ------
 Charge =  0 Multiplicity = 1

 SCF Done:  E(RHF) =  -564.115531127     A.U. after   13 cycles
 E2 =    -0.1964665029D+01 EUMP2 =    -0.56608019615624D+03
 Normal termination of Gaussian 09 at Thu Aug 26 11:36:05 2021.

 -----------------------------------------------------------
 #P Geom=AllCheck Guess=TCheck SCRF=Check MP2=Full/GTLargeXP
 -----------------------------------------------------------

 Structure from the checkpoint file:  "/public/home/users/caep010/.cache/gau_scr/Gau-206589.chk"
 ------
 IDEHAD
 ------
 Charge =  0 Multiplicity = 1

 SCF Done:  E(RHF) =  -564.257136661     A.U. after   15 cycles
 E2 =    -0.2572095980D+01 EUMP2 =    -0.56682923264082D+03
 Normal termination of Gaussian 09 at Thu Aug 26 11:49:50 2021.
 SCF Done:  E(RHF) =  -564.301672398     A.U. after   10 cycles
 Normal termination of Gaussian 09 at Thu Aug 26 11:54:25 2021.

                         Standard orientation:
 ---------------------------------------------------------------------
 Center     Atomic      Atomic             Coordinates (Angstroms)
 Number     Number       Type             X           Y           Z
 ---------------------------------------------------------------------
      1          8           0        0.232740   -2.407416    0.209565
      2          6           0        0.599816   -1.257326    0.090197
      3          6           0       -0.220286   -0.053573    0.004333
      4          6           0        0.282093    1.222484   -0.060493
      5          7           0        1.976754   -0.951919    0.059189
      6          6           0        1.698929    1.385182   -0.087176
      7          6           0        2.505732    0.291669   -0.027515
      8          6           0       -0.583963    2.454267   -0.111017
      9          1           0       -0.924850    2.714216    0.895757
     10          1           0        2.573145   -1.766595    0.114894
     11          7           0       -1.668635   -0.276701   -0.014958
     12          8           0       -2.351711    0.381838    0.764231
     13          1           0        2.130012    2.374103   -0.160244
     14          1           0        3.587111    0.352709   -0.047965
     15          8           0       -2.095751   -1.091035   -0.815277
     16          1           0       -1.480556    2.306016   -0.715239
     17          1           0       -0.017848    3.296574   -0.514941
 ---------------------------------------------------------------------

 SCF Done:  E(RHF) =  -564.310389544     A.U. after    8 cycles

 The electronic state is 1-A.
 Alpha  occ. eigenvalues --  -20.59729 -20.59202 -20.53360 -15.84599 -15.64849
 Alpha  occ. eigenvalues --  -11.38577 -11.34242 -11.32176 -11.30543 -11.26333
 Alpha  occ. eigenvalues --  -11.25669  -1.59982  -1.40959  -1.39283  -1.30512
 Alpha  occ. eigenvalues --   -1.17173  -1.08595  -1.02326  -0.96188  -0.87064
 Alpha  occ. eigenvalues --   -0.86534  -0.79104  -0.75758  -0.74233  -0.72204
 Alpha  occ. eigenvalues --   -0.68892  -0.67133  -0.64379  -0.63770  -0.61050
 Alpha  occ. eigenvalues --   -0.59974  -0.57793  -0.56525  -0.51698  -0.49443
 Alpha  occ. eigenvalues --   -0.49374  -0.45631  -0.44007  -0.43797  -0.34529
 Alpha virt. eigenvalues --    0.01723   0.02694   0.03829   0.04358   0.04696
 Alpha virt. eigenvalues --    0.05489   0.05733   0.06375   0.07133   0.07696
 Alpha virt. eigenvalues --    0.08572   0.08711   0.09207   0.09478   0.09503

 Mulliken charges:
               1
     1  O   -0.629817
     2  C    0.436397
     3  C    0.173425
     4  C    0.395537
     5  N   -0.472780
     6  C   -0.298563
     7  C   -0.028657
     8  C   -0.678471
     9  H    0.218970
    10  H    0.390741
    11  N    0.481860
    12  O   -0.442181
    13  H    0.215915
    14  H    0.230109
    15  O   -0.391197
    16  H    0.214186
    17  H    0.184527
 Sum of Mulliken charges =  -0.00000

 Dipole moment (field-independent basis, Debye):
    X=              7.2172    Y=              4.7980    Z=             -0.3635  Tot=              8.6742
 Quadrupole moment (field-independent basis, Debye-Ang):
   XX=            -58.0023   YY=            -66.0611   ZZ=            -65.9494
   XY=             -5.2509   XZ=              0.6187   YZ=             -1.5736

 Normal termination of Gaussian 09 at Thu Aug 26 12:25:47 2021.
