 Gaussian 09, Revision E.01,
 Gaussian 09:  ES64L-G09RevE.01 30-Nov-2015

 ----------------
 #P G4 OPT=calcfc
 ----------------

 ------
 IVEREH
 ------
 Symbolic Z-matrix:
 Charge =  0 Multiplicity = 1

 SCF Done:  E(RB3LYP) =  -683.972448787     A.U. after   17 cycles
 SCF Done:  E(RB3LYP) =  -684.062384936     A.U. after   13 cycles
 SCF Done:  E(RB3LYP) =  -684.107589516     A.U. after   14 cycles
 SCF Done:  E(RB3LYP) =  -684.109587378     A.U. after   13 cycles
 SCF Done:  E(RB3LYP) =  -684.109909554     A.U. after   12 cycles
 SCF Done:  E(RB3LYP) =  -684.109978688     A.U. after   12 cycles
 SCF Done:  E(RB3LYP) =  -684.109995758     A.U. after   10 cycles
 SCF Done:  E(RB3LYP) =  -684.110001102     A.U. after    9 cycles
 SCF Done:  E(RB3LYP) =  -684.110002596     A.U. after    9 cycles
 Optimization completed.
    -- Stationary point found.
 Normal termination of Gaussian 09 at Thu Aug 26 05:22:53 2021.

 ----------------------------------------------------------
 #P Geom=AllCheck Guess=TCheck SCRF=Check B3LYP/GTBas3 Freq
 ----------------------------------------------------------

 Structure from the checkpoint file:  "/public/home/users/caep010/.cache/gau_scr/Gau-38106.chk"
 ------
 IVEREH
 ------
 Charge =  0 Multiplicity = 1

 SCF Done:  E(RB3LYP) =  -684.110002596     A.U. after    1 cycles

  Exact polarizability: 231.099  -5.983 131.353  -6.652   3.069  62.290
 Approx polarizability: 365.877  -2.798 246.351 -17.657   6.637  99.170

                      1                      2                      3
                      A                      A                      A
 Frequencies --     40.3354                57.2990                83.0168
 Red. masses --      3.0879                 5.3311                 5.1516
 Frc consts  --      0.0030                 0.0103                 0.0209
 IR Inten    --      0.0451                 0.2608                 0.0585

                      4                      5                      6
                      A                      A                      A
 Frequencies --    108.2711               124.8192               165.0302
 Red. masses --      7.6590                 2.8236                 4.2105
 Frc consts  --      0.0529                 0.0259                 0.0676
 IR Inten    --      7.2573                 0.5257                 0.8357

                      7                      8                      9
                      A                      A                      A
 Frequencies --    211.9124               258.5561               271.9477
 Red. masses --      2.0689                 1.9018                 5.2299
 Frc consts  --      0.0547                 0.0749                 0.2279
 IR Inten    --      1.0906                 5.9463                 0.1379

                     10                     11                     12
                      A                      A                      A
 Frequencies --    317.7117               360.5491               369.1949
 Red. masses --      5.6522                 8.2856                 3.2400
 Frc consts  --      0.3362                 0.6346                 0.2602
 IR Inten    --      4.2505                 6.0373                 0.3407

                     13                     14                     15
                      A                      A                      A
 Frequencies --    387.8467               453.0071               477.3046
 Red. masses --      3.3529                 3.4489                 3.5241
 Frc consts  --      0.2972                 0.4170                 0.4730
 IR Inten    --     12.1126                 1.6523                 1.3906

                     16                     17                     18
                      A                      A                      A
 Frequencies --    496.6014               534.5094               554.3246
 Red. masses --      8.3120                 3.1370                 5.5650
 Frc consts  --      1.2077                 0.5281                 1.0075
 IR Inten    --      9.7880                 1.5115                 1.8449

                     19                     20                     21
                      A                      A                      A
 Frequencies --    635.5468               688.5043               750.7307
 Red. masses --      7.3445                 6.0614                 3.5448
 Frc consts  --      1.7479                 1.6929                 1.1771
 IR Inten    --      8.3765                17.8580                11.7504

                     22                     23                     24
                      A                      A                      A
 Frequencies --    770.9010               788.7874               806.6088
 Red. masses --      3.6145                 4.4797                 1.2438
 Frc consts  --      1.2656                 1.6422                 0.4768
 IR Inten    --     15.0717                 9.4672                 1.8514

                     25                     26                     27
                      A                      A                      A
 Frequencies --    845.4506               870.1574               907.2202
 Red. masses --      8.7948                 1.9006                 1.9094
 Frc consts  --      3.7039                 0.8479                 0.9259
 IR Inten    --      9.5908                17.0639                 1.4869

                     28                     29                     30
                      A                      A                      A
 Frequencies --    926.1966               953.9206               959.9087
 Red. masses --      1.5164                 3.6285                 1.5878
 Frc consts  --      0.7664                 1.9454                 0.8620
 IR Inten    --     16.9438                14.3556                 4.0335

                     31                     32                     33
                      A                      A                      A
 Frequencies --   1006.9713              1040.6329              1047.0434
 Red. masses --      1.3047                 1.5612                 1.5993
 Frc consts  --      0.7795                 0.9961                 1.0330
 IR Inten    --      0.0336                34.9898                21.1334

                     34                     35                     36
                      A                      A                      A
 Frequencies --   1106.5114              1118.9282              1142.6232
 Red. masses --      2.0549                 1.8387                 1.5595
 Frc consts  --      1.4823                 1.3563                 1.1996
 IR Inten    --    115.3240                11.5969                24.3068

                     37                     38                     39
                      A                      A                      A
 Frequencies --   1166.9261              1208.0444              1256.6544
 Red. masses --      1.6829                 2.0491                 1.5959
 Frc consts  --      1.3502                 1.7619                 1.4848
 IR Inten    --     68.5786                17.0026                89.0245

                     40                     41                     42
                      A                      A                      A
 Frequencies --   1297.1150              1317.1633              1373.6008
 Red. masses --      1.2603                 1.5465                 4.3431
 Frc consts  --      1.2494                 1.5808                 4.8280
 IR Inten    --     27.1258                18.6625               644.1834

                     43                     44                     45
                      A                      A                      A
 Frequencies --   1380.7832              1388.0156              1395.4459
 Red. masses --      2.7319                 1.6797                 2.2746
 Frc consts  --      3.0688                 1.9066                 2.6096
 IR Inten    --    203.3755                26.8615                 0.7519

                     46                     47                     48
                      A                      A                      A
 Frequencies --   1414.8925              1435.3376              1480.4003
 Red. masses --      1.2767                 2.7324                 4.2013
 Frc consts  --      1.5058                 3.3167                 5.4249
 IR Inten    --      2.7656                30.5195                18.4806

                     49                     50                     51
                      A                      A                      A
 Frequencies --   1487.3928              1491.6679              1508.6504
 Red. masses --      1.0594                 1.0422                 1.0942
 Frc consts  --      1.3810                 1.3663                 1.4673
 IR Inten    --     15.3514                 7.5698                14.3194

                     52                     53                     54
                      A                      A                      A
 Frequencies --   1554.4088              1604.8655              1625.4475
 Red. masses --      6.4446                 6.0700                 7.1095
 Frc consts  --      9.1744                 9.2112                11.0671
 IR Inten    --     63.5115                 8.2880               335.9507

                     55                     56                     57
                      A                      A                      A
 Frequencies --   1673.4893              1700.9801              2971.6800
 Red. masses --      6.0836                 3.7252                 1.0879
 Frc consts  --     10.0382                 6.3504                 5.6606
 IR Inten    --    297.6845               719.5092               211.2444

                     58                     59                     60
                      A                      A                      A
 Frequencies --   3035.3099              3047.5568              3079.3517
 Red. masses --      1.0607                 1.0347                 1.1025
 Frc consts  --      5.7577                 5.6619                 6.1596
 IR Inten    --     24.2930                16.2087                 3.5819

                     61                     62                     63
                      A                      A                      A
 Frequencies --   3124.3800              3128.0435              3140.3473
 Red. masses --      1.1022                 1.1034                 1.0901
 Frc consts  --      6.3394                 6.3613                 6.3339
 IR Inten    --     20.5998                22.1364                 1.5314

                     64                     65                     66
                      A                      A                      A
 Frequencies --   3196.2560              3206.6958              3226.1688
 Red. masses --      1.0890                 1.0902                 1.0928
 Frc consts  --      6.5550                 6.6051                 6.7015
 IR Inten    --      3.2981                 0.4241                 1.9273

 - Thermochemistry -
 -------------------
 Temperature   298.150 Kelvin.  Pressure   1.00000 Atm.
 Atom     1 has atomic number  8 and mass  15.99491

 Molecular mass:   194.06914 amu.
 Principal axes and moments of inertia in atomic units:
                           1         2         3
     Eigenvalues --  1109.343865547.032916517.71297
           X            0.99977  -0.02105   0.00429
           Y            0.02104   0.99977   0.00293
           Z           -0.00435  -0.00284   0.99999
 This molecule is an asymmetric top.
 Rotational symmetry number  1.
 Warning -- assumption of classical behavior for rotation
           may cause significant error
 Rotational temperatures (Kelvin)      0.07808     0.01561     0.01329
 Rotational constants (GHZ):           1.62685     0.32535     0.27690
 Zero-point vibrational energy     487812.9 (Joules/Mol)
                                  116.59009 (Kcal/Mol)
 Warning -- explicit consideration of  18 degrees of freedom as
           vibrations may cause significant error
 Vibrational temperatures:     58.03    82.44   119.44   155.78   179.59
          (Kelvin)            237.44   304.89   372.00   391.27   457.12
                              518.75   531.19   558.02   651.78   686.73
                              714.50   769.04   797.55   914.41   990.60
                             1080.13  1109.15  1134.89  1160.53  1216.41
                             1251.96  1305.29  1332.59  1372.48  1381.09
                             1448.81  1497.24  1506.46  1592.02  1609.89
                             1643.98  1678.94  1738.10  1808.04  1866.26
                             1895.10  1976.30  1986.64  1997.04  2007.73
                             2035.71  2065.13  2129.96  2140.02  2146.17
                             2170.61  2236.44  2309.04  2338.65  2407.77
                             2447.33  4275.58  4367.13  4384.75  4430.49
                             4495.28  4500.55  4518.25  4598.69  4613.71
                             4641.73

 Zero-point correction=                           0.185798 (Hartree/Particle)
 Thermal correction to Energy=                    0.198328
 Thermal correction to Enthalpy=                  0.199272
 Thermal correction to Gibbs Free Energy=         0.145823
 Sum of electronic and zero-point Energies=           -683.924204
 Sum of electronic and thermal Energies=              -683.911675
 Sum of electronic and thermal Enthalpies=            -683.910731
 Sum of electronic and thermal Free Energies=         -683.964179

                     E (Thermal)             CV                S
                      KCal/Mol        Cal/Mol-Kelvin    Cal/Mol-Kelvin
 Total                  124.452             46.748            112.492
 Electronic               0.000              0.000              0.000
 Translational            0.889              2.981             41.694
 Rotational               0.889              2.981             32.062
 Vibrational            122.675             40.786             38.736
 Vibration     1          0.594              1.981              5.243
 Vibration     2          0.596              1.975              4.548
 Vibration     3          0.600              1.961              3.818
 Vibration     4          0.606              1.943              3.300
 Vibration     5          0.610              1.928              3.024
 Vibration     6          0.623              1.885              2.491
 Vibration     7          0.643              1.823              2.027
 Vibration     8          0.667              1.748              1.672
 Vibration     9          0.675              1.725              1.584
 Vibration    10          0.704              1.640              1.322
 Vibration    11          0.735              1.554              1.120
 Vibration    12          0.741              1.536              1.083
 Vibration    13          0.756              1.496              1.008
 Vibration    14          0.812              1.354              0.787
 Vibration    15          0.834              1.300              0.717
 Vibration    16          0.852              1.258              0.667
 Vibration    17          0.890              1.174              0.577
 Vibration    18          0.910              1.130              0.535

 Optimization completed.
    -- Stationary point found.
 Normal termination of Gaussian 09 at Thu Aug 26 05:26:37 2021.

 -----------------------------------------------------------------
 #P Geom=AllCheck Guess=TCheck SCRF=Check CCSD(T,E4T,FrzG4)/GTBas1
 -----------------------------------------------------------------

 Structure from the checkpoint file:  "/public/home/users/caep010/.cache/gau_scr/Gau-38106.chk"
 ------
 IVEREH
 ------
 Charge =  0 Multiplicity = 1

 SCF Done:  E(RHF) =  -679.986137446     A.U. after   15 cycles
 E2 =    -0.2025637106D+01 EUMP2 =    -0.68201177455192D+03
 CCSD(T)
 CCSD(T)= -0.68215045472D+03
 62\CCSD=-682.0604342\CCSD(T)=-682.1504547\RMSD=4.617e-09\PG=C01 [X(C9H
 Normal termination of Gaussian 09 at Thu Aug 26 08:01:58 2021.

 ---------------------------------------------------------
 #P Geom=AllCheck Guess=TCheck SCRF=Check MP4=FrzG4/GTBas2
 ---------------------------------------------------------

 Structure from the checkpoint file:  "/public/home/users/caep010/.cache/gau_scr/Gau-38106.chk"
 ------
 IVEREH
 ------
 Charge =  0 Multiplicity = 1

 SCF Done:  E(RHF) =  -680.005514341     A.U. after   16 cycles
 E2 =    -0.2051283297D+01 EUMP2 =    -0.68205679763768D+03
 Normal termination of Gaussian 09 at Thu Aug 26 08:58:08 2021.

 ---------------------------------------------------------
 #P Geom=AllCheck Guess=TCheck SCRF=Check MP4=FrzG4/GTBas3
 ---------------------------------------------------------

 Structure from the checkpoint file:  "/public/home/users/caep010/.cache/gau_scr/Gau-38106.chk"
 ------
 IVEREH
 ------
 Charge =  0 Multiplicity = 1

 SCF Done:  E(RHF) =  -680.056034038     A.U. after   13 cycles
 E2 =    -0.2432753286D+01 EUMP2 =    -0.68248878732433D+03
 Normal termination of Gaussian 09 at Thu Aug 26 19:50:08 2021.

 -----------------------------------------------------------
 #P Geom=AllCheck Guess=TCheck SCRF=Check MP2=Full/GTLargeXP
 -----------------------------------------------------------

 Structure from the checkpoint file:  "/public/home/users/caep010/.cache/gau_scr/Gau-38106.chk"
 ------
 IVEREH
 ------
 Charge =  0 Multiplicity = 1

 SCF Done:  E(RHF) =  -680.221196293     A.U. after   15 cycles
 E2 =    -0.3194142711D+01 EUMP2 =    -0.68341533900355D+03
 Normal termination of Gaussian 09 at Thu Aug 26 20:07:46 2021.
 SCF Done:  E(RHF) =  -680.275110726     A.U. after   10 cycles
 Normal termination of Gaussian 09 at Thu Aug 26 20:16:44 2021.

                         Standard orientation:
 ---------------------------------------------------------------------
 Center     Atomic      Atomic             Coordinates (Angstroms)
 Number     Number       Type             X           Y           Z
 ---------------------------------------------------------------------
      1          8           0        1.470133    2.018455   -0.119313
      2          6           0        0.383541    1.392228   -0.074802
      3          6           0        0.330717   -0.074658   -0.136177
      4          6           0       -0.892280    2.061559    0.039342
      5          6           0       -2.065037    1.369249    0.087554
      6          6           0       -2.069323   -0.051483    0.025675
      7          7           0       -3.333330   -0.765944    0.079682
      8          8           0       -4.361470   -0.100236    0.177612
      9          8           0       -3.307282   -1.994193    0.024816
     10          6           0       -0.899866   -0.758887   -0.083746
     11          6           0        1.529969   -0.801378   -0.250043
     12          1           0        1.503362   -1.890144   -0.296761
     13          7           0        2.704875   -0.220961   -0.306605
     14          6           0        3.982298   -0.905260   -0.413334
     15          1           0        4.475872   -0.575743   -1.335374
     16          6           0        4.883027   -0.626407    0.791492
     17          1           0        2.615333    0.822481   -0.252445
     18          1           0       -0.873271    3.144797    0.085335
     19          1           0       -3.018458    1.874624    0.173639
     20          1           0       -0.939891   -1.841047   -0.128789
     21          1           0        5.844230   -1.131870    0.663733
     22          1           0        4.421772   -0.983989    1.716119
     23          1           0        3.786875   -1.978279   -0.514235
     24          1           0        5.074045    0.445513    0.896553
 ---------------------------------------------------------------------

 SCF Done:  E(RHF) =  -680.285572892     A.U. after    8 cycles

 The electronic state is 1-A.
 Alpha  occ. eigenvalues --  -20.58422 -20.58109 -20.52290 -15.83925 -15.63505
 Alpha  occ. eigenvalues --  -11.35756 -11.33192 -11.30826 -11.29166 -11.28333
 Alpha  occ. eigenvalues --  -11.27178 -11.25422 -11.25178 -11.23488  -1.58666
 Alpha  occ. eigenvalues --   -1.38002  -1.36872  -1.30976  -1.18320  -1.10127
 Alpha  occ. eigenvalues --   -1.05668  -1.04658  -0.94888  -0.91441  -0.88481
 Alpha  occ. eigenvalues --   -0.85711  -0.81326  -0.77450  -0.73091  -0.70715
 Alpha  occ. eigenvalues --   -0.70548  -0.70355  -0.67307  -0.65636  -0.65064
 Alpha  occ. eigenvalues --   -0.63439  -0.61139  -0.60562  -0.57988  -0.57055
 Alpha  occ. eigenvalues --   -0.55940  -0.54890  -0.53438  -0.49916  -0.48484
 Alpha  occ. eigenvalues --   -0.48054  -0.47984  -0.44424  -0.41978  -0.37523
 Alpha  occ. eigenvalues --   -0.31073
 Alpha virt. eigenvalues --    0.01884   0.02951   0.03127   0.03996   0.04371
 Alpha virt. eigenvalues --    0.04921   0.05115   0.05780   0.06158   0.06585
 Alpha virt. eigenvalues --    0.06743   0.07130   0.07578   0.08157   0.08404

 Mulliken charges:
               1
     1  O   -0.714848
     2  C    0.332691
     3  C    0.228573
     4  C   -0.265246
     5  C   -0.185349
     6  C    0.049466
     7  N    0.542025
     8  O   -0.454412
     9  O   -0.474608
    10  C   -0.271432
    11  C   -0.023090
    12  H    0.224543
    13  N   -0.261278
    14  C   -0.296820
    15  H    0.200610
    16  C   -0.500544
    17  H    0.409631
    18  H    0.242319
    19  H    0.262074
    20  H    0.240008
    21  H    0.181783
    22  H    0.169890
    23  H    0.179384
    24  H    0.184633
 Sum of Mulliken charges =  -0.00000

 Dipole moment (field-independent basis, Debye):
    X=              8.0112    Y=             -2.2522    Z=             -0.4366  Tot=              8.3332
 Quadrupole moment (field-independent basis, Debye-Ang):
   XX=            -88.6525   YY=            -85.7425   ZZ=            -82.9600
   XY=            -19.3369   XZ=             -0.4404   YZ=              1.2577

 Normal termination of Gaussian 09 at Thu Aug 26 21:16:02 2021.
