 Gaussian 09, Revision E.01,
 Gaussian 09:  ES64L-G09RevE.01 30-Nov-2015

 ----------------
 #P G4 OPT=calcfc
 ----------------

 --------
 ISAYAC02
 --------
 Symbolic Z-matrix:
 Charge =  0 Multiplicity = 1

 SCF Done:  E(RB3LYP) =  -735.838411974     A.U. after   15 cycles
 SCF Done:  E(RB3LYP) =  -735.928832854     A.U. after   13 cycles
 SCF Done:  E(RB3LYP) =  -735.965094712     A.U. after   16 cycles
 SCF Done:  E(RB3LYP) =  -735.966119086     A.U. after   15 cycles
 SCF Done:  E(RB3LYP) =  -735.966467277     A.U. after   15 cycles
 SCF Done:  E(RB3LYP) =  -735.966526528     A.U. after   12 cycles
 SCF Done:  E(RB3LYP) =  -735.966555880     A.U. after   11 cycles
 SCF Done:  E(RB3LYP) =  -735.966558518     A.U. after   11 cycles
 SCF Done:  E(RB3LYP) =  -735.966558753     A.U. after    8 cycles
 SCF Done:  E(RB3LYP) =  -735.966558795     A.U. after    7 cycles
 Optimization completed.
    -- Stationary point found.
 Normal termination of Gaussian 09 at Thu Aug 26 12:57:06 2021.

 ----------------------------------------------------------
 #P Geom=AllCheck Guess=TCheck SCRF=Check B3LYP/GTBas3 Freq
 ----------------------------------------------------------

 Structure from the checkpoint file:  "/public/home/users/caep010/.cache/gau_scr/Gau-74984.chk"
 --------
 ISAYAC02
 --------
 Charge =  0 Multiplicity = 1

 SCF Done:  E(RB3LYP) =  -735.966558795     A.U. after    1 cycles

  Exact polarizability: 140.105   0.001 147.502  -0.001   4.136  57.313
 Approx polarizability: 231.603   0.003 266.493  -0.003  25.114 106.024

                      1                      2                      3
                      A                      A                      A
 Frequencies --     48.8304                59.4510                98.9489
 Red. masses --     10.7241                10.6141                 6.2318
 Frc consts  --      0.0151                 0.0221                 0.0359
 IR Inten    --      0.2053                 2.4302                 1.9243

                      4                      5                      6
                      A                      A                      A
 Frequencies --    157.9126               176.7017               178.1559
 Red. masses --      4.8095                 1.2503                 4.9150
 Frc consts  --      0.0707                 0.0230                 0.0919
 IR Inten    --      0.0974                 0.5342                 0.9083

                      7                      8                      9
                      A                      A                      A
 Frequencies --    203.1128               239.3812               327.9376
 Red. masses --      9.0045                 3.7441                 3.5631
 Frc consts  --      0.2189                 0.1264                 0.2258
 IR Inten    --      6.1887                 1.1057                 5.9836

                     10                     11                     12
                      A                      A                      A
 Frequencies --    328.0723               329.6407               358.0212
 Red. masses --      1.0853                11.3496                 4.9490
 Frc consts  --      0.0688                 0.7266                 0.3738
 IR Inten    --     12.9789                 0.3513                 2.5851

                     13                     14                     15
                      A                      A                      A
 Frequencies --    383.6200               435.3380               468.5024
 Red. masses --      3.2374                 4.9106                 8.3888
 Frc consts  --      0.2807                 0.5483                 1.0849
 IR Inten    --      0.1882                 0.0038                 0.3245

                     16                     17                     18
                      A                      A                      A
 Frequencies --    486.3321               487.6126               524.3264
 Red. masses --      4.7122                 5.9935                 1.3181
 Frc consts  --      0.6567                 0.8396                 0.2135
 IR Inten    --      0.1095                12.5697               342.0060

                     19                     20                     21
                      A                      A                      A
 Frequencies --    614.0644               658.7498               686.4811
 Red. masses --      4.0625                 4.5157                 3.6903
 Frc consts  --      0.9025                 1.1546                 1.0246
 IR Inten    --     16.6714                 0.2463                 0.8881

                     22                     23                     24
                      A                      A                      A
 Frequencies --    744.4550               766.9182               792.0893
 Red. masses --     10.1246                 4.1175                 6.7285
 Frc consts  --      3.3060                 1.4269                 2.4872
 IR Inten    --     39.3452                 7.6377                 0.3599

                     25                     26                     27
                      A                      A                      A
 Frequencies --    797.0765               826.6188               898.4056
 Red. masses --      6.3467                12.5635                 1.8216
 Frc consts  --      2.3757                 5.0579                 0.8663
 IR Inten    --     14.5863                13.9866                23.3415

                     28                     29                     30
                      A                      A                      A
 Frequencies --    912.6924               916.3276              1004.0326
 Red. masses --      1.4524                 5.8129                 5.4752
 Frc consts  --      0.7128                 2.8757                 3.2520
 IR Inten    --      0.4858                52.1574                 2.4511

                     31                     32                     33
                      A                      A                      A
 Frequencies --   1040.7957              1055.9432              1107.0652
 Red. masses --      1.6405                 1.5056                 2.9056
 Frc consts  --      1.0470                 0.9891                 2.0981
 IR Inten    --      2.8005                 0.3071                 0.2397

                     34                     35                     36
                      A                      A                      A
 Frequencies --   1113.1344              1220.8218              1235.8751
 Red. masses --      1.3055                 2.5111                 1.5694
 Frc consts  --      0.9530                 2.2051                 1.4123
 IR Inten    --      1.3005                 0.8663                13.1563

                     37                     38                     39
                      A                      A                      A
 Frequencies --   1327.1396              1353.1060              1393.1737
 Red. masses --      3.7240                 5.0979                13.5624
 Frc consts  --      3.8644                 5.4993                15.5095
 IR Inten    --     59.4315                53.8921               353.7425

                     40                     41                     42
                      A                      A                      A
 Frequencies --   1400.0001              1425.6519              1454.7455
 Red. masses --     11.6843                 1.1846                 2.0698
 Frc consts  --     13.4930                 1.4185                 2.5807
 IR Inten    --     41.0560                 2.4141                12.8033

                     43                     44                     45
                      A                      A                      A
 Frequencies --   1481.6957              1482.2120              1519.1770
 Red. masses --      1.1503                 1.3616                 4.0151
 Frc consts  --      1.4879                 1.7625                 5.4596
 IR Inten    --      0.1269                10.3476                64.6758

                     46                     47                     48
                      A                      A                      A
 Frequencies --   1593.3140              1630.9030              1634.4887
 Red. masses --      6.7007                 7.9212                12.8596
 Frc consts  --     10.0224                12.4136                20.2414
 IR Inten    --      4.0492               454.5390                59.5579

                     49                     50                     51
                      A                      A                      A
 Frequencies --   1656.8992              1681.7218              3071.1107
 Red. masses --      1.3061                 5.0159                 1.0397
 Frc consts  --      2.1126                 8.3581                 5.7776
 IR Inten    --    133.6860                46.9693                 5.7627

                     52                     53                     54
                      A                      A                      A
 Frequencies --   3136.9242              3165.6430              3218.3145
 Red. masses --      1.0951                 1.1032                 1.0902
 Frc consts  --      6.3488                 6.5135                 6.6529
 IR Inten    --      6.5665                 7.5809                 3.6207

                     55                     56                     57
                      A                      A                      A
 Frequencies --   3218.3299              3581.4471              3684.6278
 Red. masses --      1.0905                 1.0470                 1.0995
 Frc consts  --      6.6547                 7.9129                 8.7946
 IR Inten    --      2.7678                47.3012                22.8063

 - Thermochemistry -
 -------------------
 Temperature   298.150 Kelvin.  Pressure   1.00000 Atm.
 Atom     1 has atomic number  8 and mass  15.99491

 Molecular mass:   197.04366 amu.
 Principal axes and moments of inertia in atomic units:
                           1         2         3
     Eigenvalues --  1887.741123110.047674842.02066
           X            1.00000   0.00000  -0.00000
           Y           -0.00000   0.99999  -0.00431
           Z            0.00000   0.00431   0.99999
 This molecule is an asymmetric top.
 Rotational symmetry number  1.
 Warning -- assumption of classical behavior for rotation
           may cause significant error
 Rotational temperatures (Kelvin)      0.04588     0.02785     0.01789
 Rotational constants (GHZ):           0.95603     0.58029     0.37272
 Zero-point vibrational energy     393535.9 (Joules/Mol)
                                   94.05734 (Kcal/Mol)
 Warning -- explicit consideration of  19 degrees of freedom as
           vibrations may cause significant error
 Vibrational temperatures:     70.26    85.54   142.37   227.20   254.23
          (Kelvin)            256.33   292.23   344.42   471.83   472.02
                              474.28   515.11   551.94   626.35   674.07
                              699.72   701.56   754.39   883.50   947.79
                              987.69  1071.10  1103.42  1139.64  1146.81
                             1189.32  1292.60  1313.16  1318.39  1444.58
                             1497.47  1519.26  1592.82  1601.55  1756.49
                             1778.15  1909.46  1946.82  2004.46  2014.29
                             2051.19  2093.05  2131.83  2132.57  2185.75
                             2292.42  2346.50  2351.66  2383.91  2419.62
                             4418.64  4513.33  4554.65  4630.43  4630.45
                             5152.90  5301.35

 Zero-point correction=                           0.149890 (Hartree/Particle)
 Thermal correction to Energy=                    0.162251
 Thermal correction to Enthalpy=                  0.163196
 Thermal correction to Gibbs Free Energy=         0.110821
 Sum of electronic and zero-point Energies=           -735.816669
 Sum of electronic and thermal Energies=              -735.804307
 Sum of electronic and thermal Enthalpies=            -735.803363
 Sum of electronic and thermal Free Energies=         -735.855738

                     E (Thermal)             CV                S
                      KCal/Mol        Cal/Mol-Kelvin    Cal/Mol-Kelvin
 Total                  101.814             46.173            110.231
 Electronic               0.000              0.000              0.000
 Translational            0.889              2.981             41.740
 Rotational               0.889              2.981             31.720
 Vibrational            100.037             40.211             36.772
 Vibration     1          0.595              1.978              4.864
 Vibration     2          0.597              1.974              4.475
 Vibration     3          0.604              1.950              3.475
 Vibration     4          0.621              1.894              2.575
 Vibration     5          0.628              1.871              2.363
 Vibration     6          0.629              1.869              2.348
 Vibration     7          0.639              1.835              2.105
 Vibration     8          0.657              1.780              1.807
 Vibration     9          0.711              1.620              1.270
 Vibration    10          0.711              1.619              1.270
 Vibration    11          0.712              1.616              1.262
 Vibration    12          0.733              1.559              1.131
 Vibration    13          0.753              1.505              1.025
 Vibration    14          0.796              1.393              0.841
 Vibration    15          0.826              1.320              0.742
 Vibration    16          0.842              1.280              0.693
 Vibration    17          0.844              1.278              0.690
 Vibration    18          0.879              1.196              0.600
 Vibration    19          0.973              1.002              0.426

 Optimization completed.
    -- Stationary point found.
 Normal termination of Gaussian 09 at Thu Aug 26 13:00:45 2021.

 -----------------------------------------------------------------
 #P Geom=AllCheck Guess=TCheck SCRF=Check CCSD(T,E4T,FrzG4)/GTBas1
 -----------------------------------------------------------------

 Structure from the checkpoint file:  "/public/home/users/caep010/.cache/gau_scr/Gau-74984.chk"
 --------
 ISAYAC02
 --------
 Charge =  0 Multiplicity = 1

 SCF Done:  E(RHF) =  -731.683426625     A.U. after   15 cycles
 E2 =    -0.2147879428D+01 EUMP2 =    -0.73383130605276D+03
 CCSD(T)
 CCSD(T)= -0.73394433823D+03
 959\MP4SDTQ=-733.9697209\MP4SDQ=-733.854389\CCSD=-733.846912\CCSD(T)=-
 Normal termination of Gaussian 09 at Thu Aug 26 15:18:33 2021.

 ---------------------------------------------------------
 #P Geom=AllCheck Guess=TCheck SCRF=Check MP4=FrzG4/GTBas2
 ---------------------------------------------------------

 Structure from the checkpoint file:  "/public/home/users/caep010/.cache/gau_scr/Gau-74984.chk"
 --------
 ISAYAC02
 --------
 Charge =  0 Multiplicity = 1

 SCF Done:  E(RHF) =  -731.704002009     A.U. after   14 cycles
 E2 =    -0.2178065309D+01 EUMP2 =    -0.73388206731818D+03
 Normal termination of Gaussian 09 at Thu Aug 26 16:11:17 2021.

 ---------------------------------------------------------
 #P Geom=AllCheck Guess=TCheck SCRF=Check MP4=FrzG4/GTBas3
 ---------------------------------------------------------

 Structure from the checkpoint file:  "/public/home/users/caep010/.cache/gau_scr/Gau-74984.chk"
 --------
 ISAYAC02
 --------
 Charge =  0 Multiplicity = 1

 SCF Done:  E(RHF) =  -731.762071392     A.U. after   12 cycles
 E2 =    -0.2563485529D+01 EUMP2 =    -0.73432555692057D+03
 Normal termination of Gaussian 09 at Thu Aug 26 22:07:12 2021.

 -----------------------------------------------------------
 #P Geom=AllCheck Guess=TCheck SCRF=Check MP2=Full/GTLargeXP
 -----------------------------------------------------------

 Structure from the checkpoint file:  "/public/home/users/caep010/.cache/gau_scr/Gau-74984.chk"
 --------
 ISAYAC02
 --------
 Charge =  0 Multiplicity = 1

 SCF Done:  E(RHF) =  -731.944720638     A.U. after   14 cycles
 E2 =    -0.3342196844D+01 EUMP2 =    -0.73528691748267D+03
 Normal termination of Gaussian 09 at Thu Aug 26 22:24:44 2021.
 SCF Done:  E(RHF) =  -732.003553498     A.U. after   10 cycles
 Normal termination of Gaussian 09 at Thu Aug 26 22:33:37 2021.

                         Standard orientation:
 ---------------------------------------------------------------------
 Center     Atomic      Atomic             Coordinates (Angstroms)
 Number     Number       Type             X           Y           Z
 ---------------------------------------------------------------------
      1          8           0        3.421261   -0.039280    0.538133
      2          7           0        2.505243   -0.660886    0.015244
      3          6           0        1.169558   -0.021816    0.008209
      4          6           0       -0.000019   -0.799162    0.057437
      5          6           0       -1.169562   -0.021764    0.008215
      6          7           0       -2.505250   -0.660807    0.015229
      7          8           0       -3.421211   -0.039321    0.538361
      8          6           0        1.192851    1.363850   -0.060520
      9          6           0        0.000035    2.090388   -0.106857
     10          7           0        0.000055    3.466627   -0.251360
     11          1           0       -0.839976    3.944213    0.037155
     12          1           0        0.840173    3.944161    0.037090
     13          6           0       -1.192817    1.363897   -0.060507
     14          1           0       -2.153672    1.862275   -0.078088
     15          8           0        2.619696   -1.751404   -0.526242
     16          1           0        2.153734    1.862177   -0.078121
     17          6           0       -0.000089   -2.296377    0.248804
     18          1           0       -0.887812   -2.618154    0.791368
     19          1           0       -0.000051   -2.815559   -0.713086
     20          8           0       -2.619749   -1.751185   -0.526535
     21          1           0        0.887551   -2.618224    0.791466
 ---------------------------------------------------------------------

 SCF Done:  E(RHF) =  -732.014984973     A.U. after    8 cycles

 The electronic state is 1-A.
 Alpha  occ. eigenvalues --  -20.61485 -20.61485 -20.61281 -20.61281 -15.86576
 Alpha  occ. eigenvalues --  -15.86576 -15.60160 -11.33415 -11.33413 -11.32838
 Alpha  occ. eigenvalues --  -11.30893 -11.28829 -11.28827 -11.24336  -1.61944
 Alpha  occ. eigenvalues --   -1.61923  -1.41324  -1.41311  -1.27428  -1.21282
 Alpha  occ. eigenvalues --   -1.13349  -1.07951  -1.02203  -0.97703  -0.93845
 Alpha  occ. eigenvalues --   -0.85365  -0.84397  -0.79591  -0.76868  -0.75473
 Alpha  occ. eigenvalues --   -0.74093  -0.73896  -0.73121  -0.70992  -0.70726
 Alpha  occ. eigenvalues --   -0.66842  -0.65372  -0.60575  -0.59180  -0.57448
 Alpha  occ. eigenvalues --   -0.56830  -0.56708  -0.52032  -0.51065  -0.50979
 Alpha  occ. eigenvalues --   -0.49789  -0.48884  -0.46744  -0.46198  -0.40254
 Alpha  occ. eigenvalues --   -0.33944
 Alpha virt. eigenvalues --    0.02132   0.02173   0.03950   0.04226   0.04615
 Alpha virt. eigenvalues --    0.05064   0.05417   0.06277   0.06630   0.06916
 Alpha virt. eigenvalues --    0.07833   0.08427   0.08568   0.08801   0.09258

 Mulliken charges:
               1
     1  O   -0.434265
     2  N    0.482377
     3  C    0.161553
     4  C    0.164983
     5  C    0.161597
     6  N    0.482370
     7  O   -0.434266
     8  C   -0.227020
     9  C    0.320374
    10  N   -0.718760
    11  H    0.317012
    12  H    0.317006
    13  C   -0.227018
    14  H    0.230766
    15  O   -0.401136
    16  H    0.230774
    17  C   -0.650681
    18  H    0.207552
    19  H    0.210353
    20  O   -0.401130
    21  H    0.207558
 Sum of Mulliken charges =  -0.00000

 Dipole moment (field-independent basis, Debye):
    X=             -0.0000    Y=              4.8739    Z=              0.7892  Tot=              4.9374
 Quadrupole moment (field-independent basis, Debye-Ang):
   XX=           -105.1924   YY=            -67.6071   ZZ=            -83.1007
   XY=              0.0005   XZ=             -0.0000   YZ=             -0.5018

 Normal termination of Gaussian 09 at Thu Aug 26 23:32:16 2021.
