 Gaussian 09, Revision E.01,
 Gaussian 09:  ES64L-G09RevE.01 30-Nov-2015

 ----------------
 #P G4 OPT=calcfc
 ----------------

 ------
 ISAJER
 ------
 Symbolic Z-matrix:
 Charge =  0 Multiplicity = 1

 SCF Done:  E(RB3LYP) =  -713.642118728     A.U. after   16 cycles
 SCF Done:  E(RB3LYP) =  -713.709289795     A.U. after   14 cycles
 SCF Done:  E(RB3LYP) =  -713.726247551     A.U. after   17 cycles
 SCF Done:  E(RB3LYP) =  -713.726603973     A.U. after   14 cycles
 SCF Done:  E(RB3LYP) =  -713.726629206     A.U. after   12 cycles
 SCF Done:  E(RB3LYP) =  -713.726630106     A.U. after    9 cycles
 Optimization completed.
    -- Stationary point found.
 Normal termination of Gaussian 09 at Thu Aug 26 21:25:19 2021.

 ----------------------------------------------------------
 #P Geom=AllCheck Guess=TCheck SCRF=Check B3LYP/GTBas3 Freq
 ----------------------------------------------------------

 Structure from the checkpoint file:  "/public/home/users/caep010/.cache/gau_scr/Gau-126387.chk"
 ------
 ISAJER
 ------
 Charge =  0 Multiplicity = 1

 SCF Done:  E(RB3LYP) =  -713.726630106     A.U. after    1 cycles

  Exact polarizability: 201.641   3.061 108.891   0.002   0.002  46.290
 Approx polarizability: 312.566   0.033 224.658   0.008   0.009  77.257

                      1                      2                      3
                      A                      A                      A
 Frequencies --     41.5501                58.6494                74.3895
 Red. masses --     12.1348                 9.3216                 7.2074
 Frc consts  --      0.0123                 0.0189                 0.0235
 IR Inten    --      0.0094                 1.3282                 2.0281

                      4                      5                      6
                      A                      A                      A
 Frequencies --     95.0898               115.1288               189.5239
 Red. masses --     11.2062                11.1297                12.8033
 Frc consts  --      0.0597                 0.0869                 0.2710
 IR Inten    --      0.9150                 2.2051                 3.4981

                      7                      8                      9
                      A                      A                      A
 Frequencies --    249.2289               258.7623               291.2102
 Red. masses --     11.1156                 7.6528                 8.9571
 Frc consts  --      0.4068                 0.3019                 0.4475
 IR Inten    --      1.6423                 0.1485                 1.5340

                     10                     11                     12
                      A                      A                      A
 Frequencies --    420.5303               443.5777               471.9091
 Red. masses --      3.0629                 8.3915                 3.9108
 Frc consts  --      0.3191                 0.9728                 0.5131
 IR Inten    --      0.0165                 6.9180                 0.1948

                     13                     14                     15
                      A                      A                      A
 Frequencies --    495.9324               530.4483               554.3268
 Red. masses --     11.3127                 8.5020                 7.5722
 Frc consts  --      1.6393                 1.4095                 1.3709
 IR Inten    --      5.0635                 2.9052                 3.1671

                     16                     17                     18
                      A                      A                      A
 Frequencies --    593.4618               637.8096               682.9258
 Red. masses --     12.8063                 7.1810                 5.5185
 Frc consts  --      2.6574                 1.7212                 1.5164
 IR Inten    --      5.1899                 1.0996                 2.9285

                     19                     20                     21
                      A                      A                      A
 Frequencies --    729.6002               735.2761               808.5250
 Red. masses --      7.8888                 3.1638                 5.6793
 Frc consts  --      2.4742                 1.0078                 2.1874
 IR Inten    --      3.6670                55.1790                 0.0282

                     22                     23                     24
                      A                      A                      A
 Frequencies --    854.6473               867.5690               877.2912
 Red. masses --     11.2947                 1.2499                11.2141
 Frc consts  --      4.8607                 0.5543                 5.0851
 IR Inten    --     83.2762                 0.1307                22.9853

                     25                     26                     27
                      A                      A                      A
 Frequencies --    912.9712               986.6797              1008.8256
 Red. masses --      1.8897                 1.3389                 8.7659
 Frc consts  --      0.9280                 0.7680                 5.2563
 IR Inten    --     16.2319                 0.2017               186.1100

                     28                     29                     30
                      A                      A                      A
 Frequencies --   1015.2621              1032.2724              1120.0041
 Red. masses --      1.3558                 2.5515                 2.9694
 Frc consts  --      0.8234                 1.6019                 2.1946
 IR Inten    --      0.1229                12.9573                24.6433

                     31                     32                     33
                      A                      A                      A
 Frequencies --   1121.7207              1191.5869              1248.4054
 Red. masses --      1.2955                 1.2326                 5.7145
 Frc consts  --      0.9604                 1.0311                 5.2473
 IR Inten    --     10.9686                18.1973                96.8198

                     34                     35                     36
                      A                      A                      A
 Frequencies --   1287.9826              1314.6728              1364.7529
 Red. masses --      8.5958                 1.3584                 8.9672
 Frc consts  --      8.4015                 1.3833                 9.8404
 IR Inten    --    893.0297                31.5920                23.5003

                     37                     38                     39
                      A                      A                      A
 Frequencies --   1395.2469              1432.7574              1515.6778
 Red. masses --     14.3014                 3.5300                 2.4018
 Frc consts  --     16.4033                 4.2694                 3.2509
 IR Inten    --    235.9558                12.8820                 0.9531

                     40                     41                     42
                      A                      A                      A
 Frequencies --   1609.9071              1637.1133              1661.2519
 Red. masses --      9.6418                 6.0163                10.7925
 Frc consts  --     14.7235                 9.5003                17.5487
 IR Inten    --     84.0487                 5.5565               136.4928

                     43                     44                     45
                      A                      A                      A
 Frequencies --   1777.2019              2289.8263              3217.8966
 Red. masses --     13.0369                13.9931                 1.0893
 Frc consts  --     24.2604                43.2284                 6.6456
 IR Inten    --    176.8271               600.8463                 1.3038

                     46                     47                     48
                      A                      A                      A
 Frequencies --   3219.9112              3239.4487              3239.8933
 Red. masses --      1.0888                 1.0928                 1.0939
 Frc consts  --      6.6508                 6.7564                 6.7651
 IR Inten    --      0.2798                 1.8791                 1.9296

 - Thermochemistry -
 -------------------
 Temperature   298.150 Kelvin.  Pressure   1.00000 Atm.
 Atom     1 has atomic number  8 and mass  15.99491

 Molecular mass:   192.02834 amu.
 Principal axes and moments of inertia in atomic units:
                           1         2         3
     Eigenvalues --   677.283126187.361046864.64410
           X            1.00000   0.00095  -0.00000
           Y           -0.00095   1.00000   0.00000
           Z            0.00000  -0.00000   1.00000
 This molecule is an asymmetric top.
 Rotational symmetry number  1.
 Warning -- assumption of classical behavior for rotation
           may cause significant error
 Rotational temperatures (Kelvin)      0.12788     0.01400     0.01262
 Rotational constants (GHZ):           2.66468     0.29168     0.26290
 Zero-point vibrational energy     304561.1 (Joules/Mol)
                                   72.79184 (Kcal/Mol)
 Warning -- explicit consideration of  16 degrees of freedom as
           vibrations may cause significant error
 Vibrational temperatures:     59.78    84.38   107.03   136.81   165.64
          (Kelvin)            272.68   358.58   372.30   418.99   605.05
                              638.21   678.97   713.54   763.20   797.55
                              853.86   917.66   982.58  1049.73  1057.90
                             1163.29  1229.65  1248.24  1262.22  1313.56
                             1419.61  1451.47  1460.73  1485.21  1611.43
                             1613.90  1714.43  1796.17  1853.12  1891.52
                             1963.57  2007.45  2061.42  2180.72  2316.29
                             2355.44  2390.17  2556.99  3294.55  4629.83
                             4632.73  4660.84  4661.48

 Zero-point correction=                           0.116001 (Hartree/Particle)
 Thermal correction to Energy=                    0.127344
 Thermal correction to Enthalpy=                  0.128288
 Thermal correction to Gibbs Free Energy=         0.076782
 Sum of electronic and zero-point Energies=           -713.610629
 Sum of electronic and thermal Energies=              -713.599286
 Sum of electronic and thermal Enthalpies=            -713.598342
 Sum of electronic and thermal Free Energies=         -713.649848

                     E (Thermal)             CV                S
                      KCal/Mol        Cal/Mol-Kelvin    Cal/Mol-Kelvin
 Total                   79.910             40.905            108.403
 Electronic               0.000              0.000              0.000
 Translational            0.889              2.981             41.663
 Rotational               0.889              2.981             31.731
 Vibrational             78.132             34.944             35.009
 Vibration     1          0.594              1.981              5.184
 Vibration     2          0.596              1.974              4.502
 Vibration     3          0.599              1.966              4.034
 Vibration     4          0.603              1.953              3.553
 Vibration     5          0.608              1.937              3.181
 Vibration     6          0.633              1.854              2.232
 Vibration     7          0.662              1.764              1.736
 Vibration     8          0.668              1.748              1.670
 Vibration     9          0.687              1.690              1.467
 Vibration    10          0.783              1.426              0.890
 Vibration    11          0.803              1.375              0.815
 Vibration    12          0.829              1.312              0.732
 Vibration    13          0.851              1.259              0.668
 Vibration    14          0.885              1.183              0.586
 Vibration    15          0.910              1.130              0.535
 Vibration    16          0.951              1.046              0.461

 Optimization completed.
    -- Stationary point found.
 Normal termination of Gaussian 09 at Thu Aug 26 21:28:21 2021.

 -----------------------------------------------------------------
 #P Geom=AllCheck Guess=TCheck SCRF=Check CCSD(T,E4T,FrzG4)/GTBas1
 -----------------------------------------------------------------

 Structure from the checkpoint file:  "/public/home/users/caep010/.cache/gau_scr/Gau-126387.chk"
 ------
 ISAJER
 ------
 Charge =  0 Multiplicity = 1

 SCF Done:  E(RHF) =  -709.600529969     A.U. after   17 cycles
 E2 =    -0.2096143183D+01 EUMP2 =    -0.71169667315159D+03
 CCSD(T)
 CCSD(T)= -0.71180024656D+03
 DTQ=-711.8292866\MP4SDQ=-711.7096237\CCSD=-711.7004373\CCSD(T)=-711.80
 Normal termination of Gaussian 09 at Thu Aug 26 23:18:41 2021.

 ---------------------------------------------------------
 #P Geom=AllCheck Guess=TCheck SCRF=Check MP4=FrzG4/GTBas2
 ---------------------------------------------------------

 Structure from the checkpoint file:  "/public/home/users/caep010/.cache/gau_scr/Gau-126387.chk"
 ------
 ISAJER
 ------
 Charge =  0 Multiplicity = 1

 SCF Done:  E(RHF) =  -709.620091344     A.U. after   17 cycles
 E2 =    -0.2121213179D+01 EUMP2 =    -0.71174130452392D+03
 Normal termination of Gaussian 09 at Fri Aug 27 00:12:20 2021.

 ---------------------------------------------------------
 #P Geom=AllCheck Guess=TCheck SCRF=Check MP4=FrzG4/GTBas3
 ---------------------------------------------------------

 Structure from the checkpoint file:  "/public/home/users/caep010/.cache/gau_scr/Gau-126387.chk"
 ------
 ISAJER
 ------
 Charge =  0 Multiplicity = 1

 SCF Done:  E(RHF) =  -709.668651281     A.U. after   12 cycles
 E2 =    -0.2473512687D+01 EUMP2 =    -0.71214216396734D+03
 Normal termination of Gaussian 09 at Fri Aug 27 06:46:09 2021.

 -----------------------------------------------------------
 #P Geom=AllCheck Guess=TCheck SCRF=Check MP2=Full/GTLargeXP
 -----------------------------------------------------------

 Structure from the checkpoint file:  "/public/home/users/caep010/.cache/gau_scr/Gau-126387.chk"
 ------
 ISAJER
 ------
 Charge =  0 Multiplicity = 1

 SCF Done:  E(RHF) =  -709.842813271     A.U. after   16 cycles
 E2 =    -0.3236834433D+01 EUMP2 =    -0.71307964770442D+03
 Normal termination of Gaussian 09 at Fri Aug 27 06:58:14 2021.
 SCF Done:  E(RHF) =  -709.899241091     A.U. after   10 cycles
 Normal termination of Gaussian 09 at Fri Aug 27 07:05:12 2021.

                         Standard orientation:
 ---------------------------------------------------------------------
 Center     Atomic      Atomic             Coordinates (Angstroms)
 Number     Number       Type             X           Y           Z
 ---------------------------------------------------------------------
      1          8           0       -2.655412    1.556797   -0.000360
      2          6           0       -2.133145    0.468372   -0.000075
      3          7           0       -2.866651   -0.759549    0.000278
      4          6           0       -0.660897    0.244839   -0.000045
      5          6           0        0.161593    1.377954   -0.000048
      6          7           0       -4.102513   -0.616991    0.000169
      7          7           0       -5.227705   -0.591827    0.000077
      8          1           0       -0.301850    2.356778   -0.000092
      9          6           0        1.541398    1.240030    0.000028
     10          1           0        2.203481    2.094934    0.000054
     11          6           0        2.079671   -0.042510   -0.000003
     12          6           0        1.286821   -1.183771   -0.000086
     13          7           0        3.549645   -0.197493    0.000039
     14          8           0        3.996634   -1.336143   -0.000330
     15          1           0        1.756546   -2.157812   -0.000131
     16          8           0        4.223698    0.823140    0.000431
     17          6           0       -0.094055   -1.034384   -0.000050
     18          1           0       -0.735285   -1.906414   -0.000029
 ---------------------------------------------------------------------

 SCF Done:  E(RHF) =  -709.909702379     A.U. after    7 cycles

 The electronic state is 1-A.
 Alpha  occ. eigenvalues --  -20.61174 -20.61158 -20.57485 -15.86416 -15.82386
 Alpha  occ. eigenvalues --  -15.72409 -15.64241 -11.40441 -11.32945 -11.29296
 Alpha  occ. eigenvalues --  -11.28554 -11.28455 -11.28358 -11.28093  -1.61692
 Alpha  occ. eigenvalues --   -1.55182  -1.43724  -1.41129  -1.32402  -1.21644
 Alpha  occ. eigenvalues --   -1.11985  -1.06786  -1.01165  -0.93738  -0.88172
 Alpha  occ. eigenvalues --   -0.84323  -0.79431  -0.77084  -0.74984  -0.74444
 Alpha  occ. eigenvalues --   -0.73951  -0.73125  -0.71257  -0.68879  -0.66941
 Alpha  occ. eigenvalues --   -0.66061  -0.63825  -0.60332  -0.60169  -0.54825
 Alpha  occ. eigenvalues --   -0.54228  -0.53248  -0.50730  -0.50704  -0.46605
 Alpha  occ. eigenvalues --   -0.46052  -0.43557  -0.39274  -0.38144
 Alpha virt. eigenvalues --    0.00493   0.03080   0.03988   0.04051   0.04396
 Alpha virt. eigenvalues --    0.05627   0.05702   0.06589   0.06982   0.07108
 Alpha virt. eigenvalues --    0.07499   0.07737   0.07824   0.08105   0.08399

 Mulliken charges:
               1
     1  O   -0.606104
     2  C    0.510498
     3  N   -0.469740
     4  C    0.255750
     5  C   -0.242921
     6  N    0.585044
     7  N   -0.194865
     8  H    0.263078
     9  C   -0.148715
    10  H    0.272238
    11  C    0.070803
    12  C   -0.212823
    13  N    0.524647
    14  O   -0.428762
    15  H    0.271421
    16  O   -0.423490
    17  C   -0.273619
    18  H    0.247559
 Sum of Mulliken charges =  -0.00000

 Dipole moment (field-independent basis, Debye):
    X=             -3.3049    Y=             -1.1861    Z=              0.0002  Tot=              3.5113
 Quadrupole moment (field-independent basis, Debye-Ang):
   XX=           -101.2513   YY=            -78.0848   ZZ=            -78.5131
   XY=              8.4363   XZ=             -0.0021   YZ=              0.0002

 Normal termination of Gaussian 09 at Fri Aug 27 07:47:49 2021.
