 Gaussian 09, Revision E.01,
 Gaussian 09:  ES64L-G09RevE.01 30-Nov-2015

 ----------------
 #P G4 OPT=calcfc
 ----------------

 ------
 IMIVOP
 ------
 Symbolic Z-matrix:
 Charge =  0 Multiplicity = 1

 SCF Done:  E(RB3LYP) =  -706.314108334     A.U. after   14 cycles
 SCF Done:  E(RB3LYP) =  -706.337006581     A.U. after   16 cycles
 SCF Done:  E(RB3LYP) =  -706.323361867     A.U. after   16 cycles
 SCF Done:  E(RB3LYP) =  -706.341478181     A.U. after   13 cycles
 SCF Done:  E(RB3LYP) =  -706.339809756     A.U. after   13 cycles
 SCF Done:  E(RB3LYP) =  -706.341657074     A.U. after    9 cycles
 SCF Done:  E(RB3LYP) =  -706.340601591     A.U. after   14 cycles
 SCF Done:  E(RB3LYP) =  -706.342159157     A.U. after   11 cycles
 SCF Done:  E(RB3LYP) =  -706.326276424     A.U. after   14 cycles
 SCF Done:  E(RB3LYP) =  -706.342429588     A.U. after    8 cycles
 SCF Done:  E(RB3LYP) =  -706.343247120     A.U. after    8 cycles
 SCF Done:  E(RB3LYP) =  -706.343247137     A.U. after    8 cycles
 SCF Done:  E(RB3LYP) =  -706.343247174     A.U. after    7 cycles
 Optimization completed.
    -- Stationary point found.
 Normal termination of Gaussian 09 at Thu Aug 26 05:29:22 2021.

 ----------------------------------------------------------
 #P Geom=AllCheck Guess=TCheck SCRF=Check B3LYP/GTBas3 Freq
 ----------------------------------------------------------

 Structure from the checkpoint file:  "/public/home/users/caep010/.cache/gau_scr/Gau-10364.chk"
 ------
 IMIVOP
 ------
 Charge =  0 Multiplicity = 1

 SCF Done:  E(RB3LYP) =  -706.343247174     A.U. after    2 cycles

  Exact polarizability: 161.438  -6.513 106.359  -0.134   0.190  43.595
 Approx polarizability: 232.927 -14.650 196.944   1.248   0.161  71.550

                      1                      2                      3
                      A                      A                      A
 Frequencies --     46.5146                67.9116                98.5079
 Red. masses --      8.6362                11.8818                 6.6471
 Frc consts  --      0.0110                 0.0323                 0.0380
 IR Inten    --      3.4722                 0.5432                 5.6430

                      4                      5                      6
                      A                      A                      A
 Frequencies --    139.4472               159.7826               204.3111
 Red. masses --      6.9458                 4.3522                 5.2215
 Frc consts  --      0.0796                 0.0655                 0.1284
 IR Inten    --      4.5275                36.6445                 7.6136

                      7                      8                      9
                      A                      A                      A
 Frequencies --    265.9965               285.0464               328.0631
 Red. masses --      1.3709                 4.1465                 6.6839
 Frc consts  --      0.0571                 0.1985                 0.4238
 IR Inten    --    136.0893                 4.8759                 1.7023

                     10                     11                     12
                      A                      A                      A
 Frequencies --    347.2433               371.0273               395.9947
 Red. masses --      3.0057                 2.8040                 2.2402
 Frc consts  --      0.2135                 0.2274                 0.2070
 IR Inten    --     21.4914                 1.5088                26.5966

                     13                     14                     15
                      A                      A                      A
 Frequencies --    418.7235               444.5994               505.2323
 Red. masses --      2.0862                 1.1792                 2.0059
 Frc consts  --      0.2155                 0.1373                 0.3017
 IR Inten    --      6.1827               182.1865               240.5184

                     16                     17                     18
                      A                      A                      A
 Frequencies --    521.7807               601.4253               615.9260
 Red. masses --      2.2828                 1.3982                 2.4412
 Frc consts  --      0.3662                 0.2980                 0.5456
 IR Inten    --    135.9273                 1.4646                 2.1860

                     19                     20                     21
                      A                      A                      A
 Frequencies --    672.0355               705.9397               708.8320
 Red. masses --      5.0046                 2.7434                 1.9533
 Frc consts  --      1.3317                 0.8055                 0.5782
 IR Inten    --      3.1270                15.7907                 7.6609

                     22                     23                     24
                      A                      A                      A
 Frequencies --    718.5769               737.3807               778.1396
 Red. masses --      4.2084                 4.8455                 9.9634
 Frc consts  --      1.2803                 1.5523                 3.5545
 IR Inten    --      7.4300                 3.4581                37.2032

                     25                     26                     27
                      A                      A                      A
 Frequencies --    800.4762               821.7290               866.8353
 Red. masses --     11.6657                 7.5530                 3.6751
 Frc consts  --      4.4041                 3.0049                 1.6270
 IR Inten    --     14.0049                 5.8787                 3.0502

                     28                     29                     30
                      A                      A                      A
 Frequencies --    965.9311              1038.4178              1091.8125
 Red. masses --      9.7934                 2.7352                 2.5538
 Frc consts  --      5.3836                 1.7378                 1.7936
 IR Inten    --     71.5569                 5.8110                55.6916

                     31                     32                     33
                      A                      A                      A
 Frequencies --   1128.7021              1138.5290              1183.8003
 Red. masses --      2.5562                 2.0411                 5.7542
 Frc consts  --      1.9187                 1.5588                 4.7511
 IR Inten    --      7.1373                39.0400                59.0507

                     34                     35                     36
                      A                      A                      A
 Frequencies --   1241.4333              1310.7354              1411.1314
 Red. masses --      5.7280                 6.4902                 4.5523
 Frc consts  --      5.2011                 6.5696                 5.3410
 IR Inten    --     19.4923               871.3072                32.6284

                     37                     38                     39
                      A                      A                      A
 Frequencies --   1460.7797              1479.5702              1524.4082
 Red. masses --      1.8332                 3.2241                 2.9231
 Frc consts  --      2.3048                 4.1585                 4.0022
 IR Inten    --    222.9410               136.2863               392.5489

                     40                     41                     42
                      A                      A                      A
 Frequencies --   1564.5516              1601.7604              1632.7861
 Red. masses --      1.5844                 1.8703                 6.3992
 Frc consts  --      2.2851                 2.8273                10.0515
 IR Inten    --    257.3959               101.9449               317.3036

                     43                     44                     45
                      A                      A                      A
 Frequencies --   1647.7799              1665.2486              1706.0520
 Red. masses --      3.8666                 3.0053                 6.5178
 Frc consts  --      6.1856                 4.9102                11.1772
 IR Inten    --    113.4348               685.2411               440.5518

                     46                     47                     48
                      A                      A                      A
 Frequencies --   3534.7637              3537.7308              3596.0832
 Red. masses --      1.0428                 1.0511                 1.0460
 Frc consts  --      7.6766                 7.7508                 7.9699
 IR Inten    --     85.1085               137.5573                67.9380

                     49                     50                     51
                      A                      A                      A
 Frequencies --   3684.0271              3710.0803              3727.8086
 Red. masses --      1.1079                 1.1006                 1.0991
 Frc consts  --      8.8594                 8.9259                 8.9993
 IR Inten    --    207.3367                38.6754               139.1275

 - Thermochemistry -
 -------------------
 Temperature   298.150 Kelvin.  Pressure   1.00000 Atm.
 Atom     1 has atomic number  7 and mass  14.00307

 Molecular mass:   186.06137 amu.
 Principal axes and moments of inertia in atomic units:
                           1         2         3
     Eigenvalues --   891.829173816.932944707.25752
           X            1.00000  -0.00236  -0.00184
           Y            0.00237   0.99999   0.00214
           Z            0.00184  -0.00215   1.00000
 This molecule is an asymmetric top.
 Rotational symmetry number  1.
 Warning -- assumption of classical behavior for rotation
           may cause significant error
 Rotational temperatures (Kelvin)      0.09712     0.02269     0.01840
 Rotational constants (GHZ):           2.02364     0.47282     0.38340
 Zero-point vibrational energy     354162.8 (Joules/Mol)
                                   84.64695 (Kcal/Mol)
 Warning -- explicit consideration of  18 degrees of freedom as
           vibrations may cause significant error
 Vibrational temperatures:     66.92    97.71   141.73   200.63   229.89
          (Kelvin)            293.96   382.71   410.12   472.01   499.61
                              533.82   569.75   602.45   639.68   726.92
                              750.73   865.32   886.18   966.91  1015.69
                             1019.85  1033.87  1060.92  1119.57  1151.71
                             1182.28  1247.18  1389.76  1494.05  1570.87
                             1623.95  1638.09  1703.22  1786.14  1885.85
                             2030.30  2101.73  2128.77  2193.28  2251.04
                             2304.57  2349.21  2370.78  2395.92  2454.63
                             5085.73  5090.00  5173.96  5300.49  5337.97
                             5363.48

 Zero-point correction=                           0.134893 (Hartree/Particle)
 Thermal correction to Energy=                    0.146622
 Thermal correction to Enthalpy=                  0.147566
 Thermal correction to Gibbs Free Energy=         0.096670
 Sum of electronic and zero-point Energies=           -706.208354
 Sum of electronic and thermal Energies=              -706.196626
 Sum of electronic and thermal Enthalpies=            -706.195681
 Sum of electronic and thermal Free Energies=         -706.246577

                     E (Thermal)             CV                S
                      KCal/Mol        Cal/Mol-Kelvin    Cal/Mol-Kelvin
 Total                   92.006             43.684            107.118
 Electronic               0.000              0.000              0.000
 Translational            0.889              2.981             41.569
 Rotational               0.889              2.981             31.150
 Vibrational             90.229             37.723             34.399
 Vibration     1          0.595              1.979              4.960
 Vibration     2          0.598              1.970              4.213
 Vibration     3          0.604              1.950              3.484
 Vibration     4          0.615              1.914              2.811
 Vibration     5          0.622              1.892              2.552
 Vibration     6          0.640              1.834              2.094
 Vibration     7          0.672              1.735              1.622
 Vibration     8          0.683              1.701              1.503
 Vibration     9          0.711              1.619              1.270
 Vibration    10          0.725              1.581              1.179
 Vibration    11          0.743              1.532              1.076
 Vibration    12          0.763              1.479              0.977
 Vibration    13          0.782              1.430              0.896
 Vibration    14          0.804              1.373              0.812
 Vibration    15          0.860              1.238              0.645
 Vibration    16          0.877              1.202              0.606
 Vibration    17          0.960              1.029              0.447
 Vibration    18          0.976              0.998              0.423

 Optimization completed.
    -- Stationary point found.
 Normal termination of Gaussian 09 at Thu Aug 26 05:32:10 2021.

 -----------------------------------------------------------------
 #P Geom=AllCheck Guess=TCheck SCRF=Check CCSD(T,E4T,FrzG4)/GTBas1
 -----------------------------------------------------------------

 Structure from the checkpoint file:  "/public/home/users/caep010/.cache/gau_scr/Gau-10364.chk"
 ------
 IMIVOP
 ------
 Charge =  0 Multiplicity = 1

 SCF Done:  E(RHF) =  -702.275361472     A.U. after   15 cycles
 E2 =    -0.2038792239D+01 EUMP2 =    -0.70431415371144D+03
 CCSD(T)
 CCSD(T)= -0.70442394950D+03
 444554\CCSD=-704.3400818\CCSD(T)=-704.4239495\RMSD=5.383e-09\PG=C01 [X
 Normal termination of Gaussian 09 at Thu Aug 26 07:01:43 2021.

 ---------------------------------------------------------
 #P Geom=AllCheck Guess=TCheck SCRF=Check MP4=FrzG4/GTBas2
 ---------------------------------------------------------

 Structure from the checkpoint file:  "/public/home/users/caep010/.cache/gau_scr/Gau-10364.chk"
 ------
 IMIVOP
 ------
 Charge =  0 Multiplicity = 1

 SCF Done:  E(RHF) =  -702.297831283     A.U. after   14 cycles
 E2 =    -0.2069084320D+01 EUMP2 =    -0.70436691560255D+03
 Normal termination of Gaussian 09 at Thu Aug 26 07:37:54 2021.

 ---------------------------------------------------------
 #P Geom=AllCheck Guess=TCheck SCRF=Check MP4=FrzG4/GTBas3
 ---------------------------------------------------------

 Structure from the checkpoint file:  "/public/home/users/caep010/.cache/gau_scr/Gau-10364.chk"
 ------
 IMIVOP
 ------
 Charge =  0 Multiplicity = 1

 SCF Done:  E(RHF) =  -702.360262283     A.U. after   12 cycles
 E2 =    -0.2424956892D+01 EUMP2 =    -0.70478521917499D+03
 Normal termination of Gaussian 09 at Thu Aug 26 11:46:55 2021.

 -----------------------------------------------------------
 #P Geom=AllCheck Guess=TCheck SCRF=Check MP2=Full/GTLargeXP
 -----------------------------------------------------------

 Structure from the checkpoint file:  "/public/home/users/caep010/.cache/gau_scr/Gau-10364.chk"
 ------
 IMIVOP
 ------
 Charge =  0 Multiplicity = 1

 SCF Done:  E(RHF) =  -702.541808363     A.U. after   13 cycles
 E2 =    -0.3158315667D+01 EUMP2 =    -0.70570012403028D+03
 Normal termination of Gaussian 09 at Thu Aug 26 11:58:52 2021.
 SCF Done:  E(RHF) =  -702.596714726     A.U. after    9 cycles
 Normal termination of Gaussian 09 at Thu Aug 26 12:04:36 2021.

                         Standard orientation:
 ---------------------------------------------------------------------
 Center     Atomic      Atomic             Coordinates (Angstroms)
 Number     Number       Type             X           Y           Z
 ---------------------------------------------------------------------
      1          7           0        0.649759   -0.133058   -0.015286
      2          6           0       -0.656969   -0.567866   -0.007735
      3          6           0        1.187276    1.146829   -0.004673
      4          7           0       -0.814097   -1.886787   -0.000614
      5          1           0       -1.763490   -2.231818    0.005630
      6          7           0        1.694956   -1.062043   -0.011473
      7          6           0        2.749218   -0.269239    0.011491
      8          1           0        0.021406   -2.452529    0.007876
      9          7           0        0.447381    2.260869   -0.024410
     10          7           0        2.502927    1.079264    0.012476
     11          1           0        0.921717    3.142964    0.051175
     12          1           0       -0.559545    2.173298    0.010276
     13          7           0        4.029647   -0.738608    0.080177
     14          1           0        4.732934   -0.089089   -0.234004
     15          7           0       -1.562811    0.403689   -0.007796
     16          1           0        4.165777   -1.693119   -0.212535
     17          7           0       -2.900366    0.072735    0.003378
     18          8           0       -3.659293    1.025440    0.014457
     19          8           0       -3.281671   -1.110500    0.000783
 ---------------------------------------------------------------------

 SCF Done:  E(RHF) =  -702.607518210     A.U. after    9 cycles

 The electronic state is 1-A.
 Alpha  occ. eigenvalues --  -20.59265 -20.58805 -15.87469 -15.67132 -15.61805
 Alpha  occ. eigenvalues --  -15.60698 -15.60546 -15.59325 -15.58648 -15.56258
 Alpha  occ. eigenvalues --  -11.42564 -11.39720 -11.36069  -1.61016  -1.44535
 Alpha  occ. eigenvalues --   -1.39289  -1.33776  -1.28044  -1.25330  -1.23206
 Alpha  occ. eigenvalues --   -1.19224  -1.11379  -0.97298  -0.90711  -0.85160
 Alpha  occ. eigenvalues --   -0.82327  -0.78895  -0.77902  -0.74077  -0.73548
 Alpha  occ. eigenvalues --   -0.73497  -0.72679  -0.70346  -0.69265  -0.66117
 Alpha  occ. eigenvalues --   -0.64132  -0.58782  -0.55078  -0.54261  -0.52866
 Alpha  occ. eigenvalues --   -0.49909  -0.48780  -0.47174  -0.46542  -0.46062
 Alpha  occ. eigenvalues --   -0.42901  -0.40434  -0.35095
 Alpha virt. eigenvalues --    0.02805   0.03875   0.04081   0.04586   0.05742
 Alpha virt. eigenvalues --    0.06165   0.06367   0.06903   0.07293   0.07816
 Alpha virt. eigenvalues --    0.08400   0.09152   0.10160   0.10567   0.11479

 Mulliken charges:
               1
     1  N    0.131294
     2  C    0.514611
     3  C    0.595047
     4  N   -0.749220
     5  H    0.411545
     6  N   -0.483166
     7  C    0.473824
     8  H    0.385640
     9  N   -0.752253
    10  N   -0.575933
    11  H    0.372052
    12  H    0.403371
    13  N   -0.678212
    14  H    0.340900
    15  N   -0.380385
    16  H    0.331973
    17  N    0.543489
    18  O   -0.398843
    19  O   -0.485735
 Sum of Mulliken charges =  -0.00000

 Dipole moment (field-independent basis, Debye):
    X=              5.3103    Y=             -1.0907    Z=             -0.7380  Tot=              5.4712
 Quadrupole moment (field-independent basis, Debye-Ang):
   XX=            -86.0471   YY=            -63.5842   ZZ=            -76.2915
   XY=             -0.7632   XZ=             -4.3162   YZ=              1.2510

 Normal termination of Gaussian 09 at Thu Aug 26 12:51:27 2021.
