 Gaussian 09, Revision E.01,
 Gaussian 09:  ES64L-G09RevE.01 30-Nov-2015

 ----------------
 #P G4 OPT=calcfc
 ----------------

 ------
 ISAJAN
 ------
 Symbolic Z-matrix:
 Charge =  0 Multiplicity = 1

 SCF Done:  E(RB3LYP) =  -713.626374733     A.U. after   16 cycles
 SCF Done:  E(RB3LYP) =  -713.694487864     A.U. after   14 cycles
 SCF Done:  E(RB3LYP) =  -713.712074890     A.U. after   17 cycles
 SCF Done:  E(RB3LYP) =  -713.712782467     A.U. after   14 cycles
 SCF Done:  E(RB3LYP) =  -713.712838300     A.U. after   17 cycles
 SCF Done:  E(RB3LYP) =  -713.713000607     A.U. after   14 cycles
 SCF Done:  E(RB3LYP) =  -713.713006355     A.U. after   13 cycles
 SCF Done:  E(RB3LYP) =  -713.713006785     A.U. after   10 cycles
 SCF Done:  E(RB3LYP) =  -713.713006831     A.U. after    8 cycles
 Optimization completed.
    -- Stationary point found.
 Normal termination of Gaussian 09 at Thu Aug 26 21:22:40 2021.

 ----------------------------------------------------------
 #P Geom=AllCheck Guess=TCheck SCRF=Check B3LYP/GTBas3 Freq
 ----------------------------------------------------------

 Structure from the checkpoint file:  "/public/home/users/caep010/.cache/gau_scr/Gau-157098.chk"
 ------
 ISAJAN
 ------
 Charge =  0 Multiplicity = 1

 SCF Done:  E(RB3LYP) =  -713.713006831     A.U. after    1 cycles

  Exact polarizability: 166.404  -9.890 118.907   3.422   3.120  54.894
 Approx polarizability: 286.649 -18.881 205.558  13.423  13.185 103.303

                      1                      2                      3
                      A                      A                      A
 Frequencies --     21.7791                64.1392                84.5308
 Red. masses --     14.1442                11.5541                 7.2483
 Frc consts  --      0.0040                 0.0280                 0.0305
 IR Inten    --      0.3769                 0.2214                 0.1355

                      4                      5                      6
                      A                      A                      A
 Frequencies --    119.4907               139.7937               185.5417
 Red. masses --      9.1844                 7.2921                 9.1610
 Frc consts  --      0.0773                 0.0840                 0.1858
 IR Inten    --      0.5492                 0.0787                 1.1672

                      7                      8                      9
                      A                      A                      A
 Frequencies --    198.5260               241.0152               319.4288
 Red. masses --     12.9873                 6.9624                 9.5809
 Frc consts  --      0.3016                 0.2383                 0.5760
 IR Inten    --      0.1397                 1.5195                 5.5736

                     10                     11                     12
                      A                      A                      A
 Frequencies --    349.9042               411.9290               417.5084
 Red. masses --      9.6418                 5.5372                 4.5696
 Frc consts  --      0.6955                 0.5536                 0.4693
 IR Inten    --      0.6544                 2.2710                 1.8650

                     13                     14                     15
                      A                      A                      A
 Frequencies --    516.4781               553.0827               579.9757
 Red. masses --     10.8032                 5.7700                 5.2707
 Frc consts  --      1.6979                 1.0399                 1.0446
 IR Inten    --      0.2283                 2.5217                 2.3515

                     16                     17                     18
                      A                      A                      A
 Frequencies --    596.1156               656.5381               698.8682
 Red. masses --     12.1265                 6.3167                 7.1925
 Frc consts  --      2.5389                 1.6042                 2.0698
 IR Inten    --      5.7683                11.7920                 3.4772

                     19                     20                     21
                      A                      A                      A
 Frequencies --    718.8139               742.2057               794.4527
 Red. masses --      7.4262                 3.1587                 2.9754
 Frc consts  --      2.2607                 1.0252                 1.1065
 IR Inten    --     31.1336                43.6114                14.6315

                     22                     23                     24
                      A                      A                      A
 Frequencies --    811.6794               860.6563               870.7551
 Red. masses --      2.0854                11.2607                10.4462
 Frc consts  --      0.8095                 4.9144                 4.6666
 IR Inten    --     13.4806                33.4190                13.3949

                     25                     26                     27
                      A                      A                      A
 Frequencies --    915.1710               971.7208               996.9775
 Red. masses --      1.5061                 1.3984                 1.3516
 Frc consts  --      0.7432                 0.7780                 0.7915
 IR Inten    --      3.0876                13.2249                13.1667

                     28                     29                     30
                      A                      A                      A
 Frequencies --   1001.5605              1062.1326              1111.8180
 Red. masses --      6.2439                 2.3921                 2.9746
 Frc consts  --      3.6903                 1.5900                 2.1664
 IR Inten    --    172.1579                 0.3800                17.9822

                     31                     32                     33
                      A                      A                      A
 Frequencies --   1167.4985              1187.6928              1246.9279
 Red. masses --      1.8544                 1.1003                 4.6724
 Frc consts  --      1.4892                 0.9145                 4.2803
 IR Inten    --      2.8212                 1.4600                16.1145

                     34                     35                     36
                      A                      A                      A
 Frequencies --   1279.0966              1291.2857              1349.9893
 Red. masses --      7.6259                 1.6001                 7.2377
 Frc consts  --      7.3511                 1.5720                 7.7716
 IR Inten    --    736.0587                56.6435                10.2567

                     37                     38                     39
                      A                      A                      A
 Frequencies --   1407.0327              1470.7721              1508.9113
 Red. masses --     14.5612                 2.2149                 2.6054
 Frc consts  --     16.9846                 2.8229                 3.4951
 IR Inten    --    174.8761                 4.7055                 7.4580

                     40                     41                     42
                      A                      A                      A
 Frequencies --   1612.6218              1629.9317              1655.7436
 Red. masses --      6.0965                 8.3128                 9.9369
 Frc consts  --      9.3411                13.0117                16.0504
 IR Inten    --     12.0281               160.3042               103.1914

                     43                     44                     45
                      A                      A                      A
 Frequencies --   1793.4467              2288.3221              3189.9888
 Red. masses --     13.2151                13.9925                 1.0860
 Frc consts  --     25.0437                43.1697                 6.5110
 IR Inten    --    164.0447               527.3960                 1.3797

                     46                     47                     48
                      A                      A                      A
 Frequencies --   3203.8535              3215.4811              3227.1865
 Red. masses --      1.0914                 1.0941                 1.0936
 Frc consts  --      6.6003                 6.6651                 6.7106
 IR Inten    --      7.5144                 2.2730                 1.2164

 - Thermochemistry -
 -------------------
 Temperature   298.150 Kelvin.  Pressure   1.00000 Atm.
 Atom     1 has atomic number  8 and mass  15.99491

 Molecular mass:   192.02834 amu.
 Principal axes and moments of inertia in atomic units:
                           1         2         3
     Eigenvalues --  1602.342803317.399704658.90102
           X            0.99971  -0.02422  -0.00097
           Y            0.02421   0.99971  -0.00060
           Z            0.00099   0.00058   1.00000
 This molecule is an asymmetric top.
 Rotational symmetry number  1.
 Warning -- assumption of classical behavior for rotation
           may cause significant error
 Rotational temperatures (Kelvin)      0.05405     0.02611     0.01859
 Rotational constants (GHZ):           1.12631     0.54402     0.38737
 Zero-point vibrational energy     303482.9 (Joules/Mol)
                                   72.53414 (Kcal/Mol)
 Warning -- explicit consideration of  16 degrees of freedom as
           vibrations may cause significant error
 Vibrational temperatures:     31.34    92.28   121.62   171.92   201.13
          (Kelvin)            266.95   285.63   346.77   459.59   503.43
                              592.67   600.70   743.10   795.76   834.45
                              857.68   944.61  1005.51  1034.21  1067.87
                             1143.04  1167.82  1238.29  1252.82  1316.73
                             1398.09  1434.43  1441.02  1528.17  1599.66
                             1679.77  1708.82  1794.05  1840.33  1857.87
                             1942.33  2024.40  2116.11  2170.98  2320.20
                             2345.11  2382.24  2580.37  3292.38  4589.68
                             4609.62  4626.35  4643.20

 Zero-point correction=                           0.115591 (Hartree/Particle)
 Thermal correction to Energy=                    0.127030
 Thermal correction to Enthalpy=                  0.127974
 Thermal correction to Gibbs Free Energy=         0.076129
 Sum of electronic and zero-point Energies=           -713.597416
 Sum of electronic and thermal Energies=              -713.585977
 Sum of electronic and thermal Enthalpies=            -713.585032
 Sum of electronic and thermal Free Energies=         -713.636877

                     E (Thermal)             CV                S
                      KCal/Mol        Cal/Mol-Kelvin    Cal/Mol-Kelvin
 Total                   79.713             41.144            109.117
 Electronic               0.000              0.000              0.000
 Translational            0.889              2.981             41.663
 Rotational               0.889              2.981             31.583
 Vibrational             77.935             35.182             35.871
 Vibration     1          0.593              1.985              6.465
 Vibration     2          0.597              1.971              4.326
 Vibration     3          0.601              1.960              3.783
 Vibration     4          0.609              1.933              3.109
 Vibration     5          0.615              1.914              2.807
 Vibration     6          0.632              1.860              2.272
 Vibration     7          0.637              1.842              2.147
 Vibration     8          0.658              1.778              1.795
 Vibration     9          0.705              1.636              1.313
 Vibration    10          0.727              1.575              1.167
 Vibration    11          0.776              1.444              0.920
 Vibration    12          0.781              1.432              0.900
 Vibration    13          0.872              1.213              0.618
 Vibration    14          0.908              1.133              0.538
 Vibration    15          0.937              1.075              0.485
 Vibration    16          0.954              1.040              0.456

 Optimization completed.
    -- Stationary point found.
 Normal termination of Gaussian 09 at Thu Aug 26 21:25:55 2021.

 -----------------------------------------------------------------
 #P Geom=AllCheck Guess=TCheck SCRF=Check CCSD(T,E4T,FrzG4)/GTBas1
 -----------------------------------------------------------------

 Structure from the checkpoint file:  "/public/home/users/caep010/.cache/gau_scr/Gau-157098.chk"
 ------
 ISAJAN
 ------
 Charge =  0 Multiplicity = 1

 SCF Done:  E(RHF) =  -709.585256877     A.U. after   17 cycles
 E2 =    -0.2101288710D+01 EUMP2 =    -0.71168654558680D+03
 CCSD(T)
 CCSD(T)= -0.71178946122D+03
 Q=-711.8191483\MP4SDQ=-711.6985576\CCSD=-711.6890523\CCSD(T)=-711.7894
 Normal termination of Gaussian 09 at Thu Aug 26 23:32:19 2021.

 ---------------------------------------------------------
 #P Geom=AllCheck Guess=TCheck SCRF=Check MP4=FrzG4/GTBas2
 ---------------------------------------------------------

 Structure from the checkpoint file:  "/public/home/users/caep010/.cache/gau_scr/Gau-157098.chk"
 ------
 ISAJAN
 ------
 Charge =  0 Multiplicity = 1

 SCF Done:  E(RHF) =  -709.605007712     A.U. after   22 cycles
 E2 =    -0.2128539294D+01 EUMP2 =    -0.71173354700571D+03
 Normal termination of Gaussian 09 at Fri Aug 27 00:29:12 2021.

 ---------------------------------------------------------
 #P Geom=AllCheck Guess=TCheck SCRF=Check MP4=FrzG4/GTBas3
 ---------------------------------------------------------

 Structure from the checkpoint file:  "/public/home/users/caep010/.cache/gau_scr/Gau-157098.chk"
 ------
 ISAJAN
 ------
 Charge =  0 Multiplicity = 1

 SCF Done:  E(RHF) =  -709.654046875     A.U. after   13 cycles
 E2 =    -0.2478275196D+01 EUMP2 =    -0.71213232207106D+03
 Normal termination of Gaussian 09 at Fri Aug 27 07:04:41 2021.

 -----------------------------------------------------------
 #P Geom=AllCheck Guess=TCheck SCRF=Check MP2=Full/GTLargeXP
 -----------------------------------------------------------

 Structure from the checkpoint file:  "/public/home/users/caep010/.cache/gau_scr/Gau-157098.chk"
 ------
 ISAJAN
 ------
 Charge =  0 Multiplicity = 1

 SCF Done:  E(RHF) =  -709.828124530     A.U. after   16 cycles
 E2 =    -0.3242157798D+01 EUMP2 =    -0.71307028232772D+03
 Normal termination of Gaussian 09 at Fri Aug 27 07:17:29 2021.
 SCF Done:  E(RHF) =  -709.884304445     A.U. after   11 cycles
 Normal termination of Gaussian 09 at Fri Aug 27 07:25:27 2021.

                         Standard orientation:
 ---------------------------------------------------------------------
 Center     Atomic      Atomic             Coordinates (Angstroms)
 Number     Number       Type             X           Y           Z
 ---------------------------------------------------------------------
      1          8           0        1.430303   -0.934455   -1.024313
      2          6           0        1.190749   -0.003486   -0.300666
      3          7           0        2.185621    0.757649    0.388335
      4          6           0       -0.174842    0.555816   -0.061122
      5          7           0        3.351364    0.362296    0.196948
      6          7           0        4.435583    0.079137    0.095220
      7          6           0       -1.308273   -0.260299    0.022744
      8          7           0       -1.185877   -1.725108    0.168701
      9          8           0       -0.292927   -2.139982    0.890727
     10          8           0       -2.023199   -2.410396   -0.399709
     11          6           0       -2.589970    0.265971    0.065064
     12          1           0       -3.431828   -0.411715    0.123439
     13          6           0       -0.367921    1.938629   -0.065096
     14          6           0       -1.648634    2.482610   -0.005634
     15          1           0        0.498745    2.584658   -0.133821
     16          6           0       -2.759958    1.647869    0.052728
     17          1           0       -3.759272    2.065818    0.096785
     18          1           0       -1.774808    3.559412   -0.012573
 ---------------------------------------------------------------------

 SCF Done:  E(RHF) =  -709.894745606     A.U. after    8 cycles

 The electronic state is 1-A.
 Alpha  occ. eigenvalues --  -20.60608 -20.60520 -20.56914 -15.85760 -15.81827
 Alpha  occ. eigenvalues --  -15.71924 -15.63712 -11.40143 -11.33135 -11.30020
 Alpha  occ. eigenvalues --  -11.28472 -11.28287 -11.28098 -11.27950  -1.61151
 Alpha  occ. eigenvalues --   -1.54629  -1.43330  -1.40604  -1.31846  -1.21639
 Alpha  occ. eigenvalues --   -1.10444  -1.08757  -0.98826  -0.94549  -0.88452
 Alpha  occ. eigenvalues --   -0.83825  -0.79143  -0.75805  -0.74338  -0.73906
 Alpha  occ. eigenvalues --   -0.73358  -0.72716  -0.70655  -0.69638  -0.66799
 Alpha  occ. eigenvalues --   -0.66339  -0.64270  -0.59228  -0.58206  -0.55524
 Alpha  occ. eigenvalues --   -0.54367  -0.53077  -0.50379  -0.49678  -0.46006
 Alpha  occ. eigenvalues --   -0.45265  -0.42705  -0.38719  -0.38291
 Alpha virt. eigenvalues --    0.02455   0.02865   0.03421   0.04331   0.04774
 Alpha virt. eigenvalues --    0.05314   0.05936   0.06123   0.06432   0.06902
 Alpha virt. eigenvalues --    0.07447   0.07923   0.08173   0.08672   0.08780

 Mulliken charges:
               1
     1  O   -0.576187
     2  C    0.488058
     3  N   -0.484139
     4  C    0.296308
     5  N    0.589840
     6  N   -0.190222
     7  C    0.075832
     8  N    0.501210
     9  O   -0.410229
    10  O   -0.431209
    11  C   -0.197143
    12  H    0.252332
    13  C   -0.208771
    14  C   -0.197900
    15  H    0.230792
    16  C   -0.184253
    17  H    0.222260
    18  H    0.223422
 Sum of Mulliken charges =  -0.00000

 Dipole moment (field-independent basis, Debye):
    X=             -1.2814    Y=              6.3013    Z=              0.6726  Tot=              6.4654
 Quadrupole moment (field-independent basis, Debye-Ang):
   XX=            -67.6983   YY=            -82.2308   ZZ=            -83.3816
   XY=             -4.7842   XZ=             -0.3166   YZ=             -2.2931

 Normal termination of Gaussian 09 at Fri Aug 27 08:15:25 2021.
