 Gaussian 09, Revision E.01,
 Gaussian 09:  ES64L-G09RevE.01 30-Nov-2015

 ----------------
 #P G4 OPT=calcfc
 ----------------

 ------
 INEZUY
 ------
 Symbolic Z-matrix:
 Charge =  0 Multiplicity = 1

 SCF Done:  E(RB3LYP) =  -557.344108008     A.U. after   15 cycles
 SCF Done:  E(RB3LYP) =  -557.419380844     A.U. after   14 cycles
 SCF Done:  E(RB3LYP) =  -557.440468021     A.U. after   15 cycles
 SCF Done:  E(RB3LYP) =  -557.447287615     A.U. after   13 cycles
 SCF Done:  E(RB3LYP) =  -557.447827454     A.U. after   13 cycles
 SCF Done:  E(RB3LYP) =  -557.447929612     A.U. after   12 cycles
 SCF Done:  E(RB3LYP) =  -557.448042427     A.U. after   13 cycles
 SCF Done:  E(RB3LYP) =  -557.447942742     A.U. after   12 cycles
 SCF Done:  E(RB3LYP) =  -557.448061462     A.U. after    8 cycles
 SCF Done:  E(RB3LYP) =  -557.448117608     A.U. after   11 cycles
 SCF Done:  E(RB3LYP) =  -557.448174850     A.U. after   10 cycles
 SCF Done:  E(RB3LYP) =  -557.448175413     A.U. after    9 cycles
 SCF Done:  E(RB3LYP) =  -557.448175469     A.U. after    8 cycles
 Optimization completed.
    -- Stationary point found.
 Normal termination of Gaussian 09 at Fri Aug 27 03:49:04 2021.

 ----------------------------------------------------------
 #P Geom=AllCheck Guess=TCheck SCRF=Check B3LYP/GTBas3 Freq
 ----------------------------------------------------------

 Structure from the checkpoint file:  "/public/home/users/caep010/.cache/gau_scr/Gau-137536.chk"
 ------
 INEZUY
 ------
 Charge =  0 Multiplicity = 1

 SCF Done:  E(RB3LYP) =  -557.448175469     A.U. after    1 cycles

  Exact polarizability: 106.961   1.072  85.703  -1.056  -0.094  34.139
 Approx polarizability: 180.014  -2.410 165.106   0.225   0.496  55.065

                      1                      2                      3
                      A                      A                      A
 Frequencies --     93.2996               128.0218               163.2931
 Red. masses --     11.2163                 1.0574                 6.8305
 Frc consts  --      0.0575                 0.0102                 0.1073
 IR Inten    --      0.5402                59.1633                 2.2958

                      4                      5                      6
                      A                      A                      A
 Frequencies --    208.1379               232.6663               306.6104
 Red. masses --      7.6802                 6.4238                 3.4127
 Frc consts  --      0.1960                 0.2049                 0.1890
 IR Inten    --      2.7000                 8.3201                 6.9810

                      7                      8                      9
                      A                      A                      A
 Frequencies --    360.7428               412.0906               427.1276
 Red. masses --      2.9952                 1.5659                 5.7554
 Frc consts  --      0.2297                 0.1567                 0.6186
 IR Inten    --     23.7411               173.5348                 5.3915

                     10                     11                     12
                      A                      A                      A
 Frequencies --    447.3122               509.2367               618.6790
 Red. masses --      8.1648                 1.2187                 4.4141
 Frc consts  --      0.9625                 0.1862                 0.9955
 IR Inten    --     11.1490                70.8727                 1.2268

                     13                     14                     15
                      A                      A                      A
 Frequencies --    649.3598               664.2166               721.6451
 Red. masses --     10.6568                 5.8003                12.0707
 Frc consts  --      2.6476                 1.5077                 3.7037
 IR Inten    --      8.5294                12.6320                 2.4327

                     16                     17                     18
                      A                      A                      A
 Frequencies --    793.8328               798.9436               882.9400
 Red. masses --     13.1195                10.2772                 7.9036
 Frc consts  --      4.8711                 3.8651                 3.6303
 IR Inten    --     11.2896                59.1741                 4.1041

                     19                     20                     21
                      A                      A                      A
 Frequencies --    982.4280              1033.5775              1107.9511
 Red. masses --      1.4739                 6.4258                 1.7500
 Frc consts  --      0.8382                 4.0445                 1.2657
 IR Inten    --    229.1327                 5.2391                31.8231

                     22                     23                     24
                      A                      A                      A
 Frequencies --   1224.3793              1247.3357              1363.3525
 Red. masses --      2.3601                 4.7027                 9.5130
 Frc consts  --      2.0845                 4.3109                10.4180
 IR Inten    --     28.3948                33.2271                34.0418

                     25                     26                     27
                      A                      A                      A
 Frequencies --   1382.9807              1444.0800              1466.8678
 Red. masses --     12.3289                 4.0875                 4.3666
 Frc consts  --     13.8934                 5.0222                 5.5357
 IR Inten    --    267.9621                88.4036                36.0732

                     28                     29                     30
                      A                      A                      A
 Frequencies --   1543.8304              1553.6638              1620.5940
 Red. masses --      3.7707                 1.9829                 3.2923
 Frc consts  --      5.2950                 2.8200                 5.0945
 IR Inten    --     78.4110                85.8318               103.4719

                     31                     32                     33
                      A                      A                      A
 Frequencies --   1636.4755              1665.4939              3476.6648
 Red. masses --      1.0987                 4.3139                 1.0479
 Frc consts  --      1.7335                 7.0502                 7.4624
 IR Inten    --     34.0584               370.9985                16.6154

                     34                     35                     36
                      A                      A                      A
 Frequencies --   3580.8752              3584.8314              3710.5135
 Red. masses --      1.0452                 1.0955                 1.1024
 Frc consts  --      7.8963                 8.2949                 8.9426
 IR Inten    --     55.3891                28.2260                70.3095

 - Thermochemistry -
 -------------------
 Temperature   298.150 Kelvin.  Pressure   1.00000 Atm.
 Atom     1 has atomic number  7 and mass  14.00307

 Molecular mass:   144.03957 amu.
 Principal axes and moments of inertia in atomic units:
                           1         2         3
     Eigenvalues --   739.028351577.329842311.23425
           X            0.99913   0.04137  -0.00596
           Y           -0.04140   0.99912  -0.00634
           Z            0.00569   0.00658   0.99996
 This molecule is an asymmetric top.
 Rotational symmetry number  1.
 Warning -- assumption of classical behavior for rotation
           may cause significant error
 Rotational temperatures (Kelvin)      0.11720     0.05491     0.03748
 Rotational constants (GHZ):           2.44205     1.14417     0.78086
 Zero-point vibrational energy     251479.3 (Joules/Mol)
                                   60.10499 (Kcal/Mol)
 Warning -- explicit consideration of  12 degrees of freedom as
           vibrations may cause significant error
 Vibrational temperatures:    134.24   184.19   234.94   299.46   334.75
          (Kelvin)            441.14   519.03   592.91   614.54   643.58
                              732.68   890.14   934.28   955.66  1038.29
                             1142.15  1149.50  1270.35  1413.49  1487.09
                             1594.09  1761.61  1794.64  1961.56  1989.80
                             2077.71  2110.49  2221.22  2235.37  2331.67
                             2354.52  2396.27  5002.14  5152.07  5157.77
                             5338.59

 Zero-point correction=                           0.095783 (Hartree/Particle)
 Thermal correction to Energy=                    0.104455
 Thermal correction to Enthalpy=                  0.105400
 Thermal correction to Gibbs Free Energy=         0.062011
 Sum of electronic and zero-point Energies=           -557.352392
 Sum of electronic and thermal Energies=              -557.343720
 Sum of electronic and thermal Enthalpies=            -557.342776
 Sum of electronic and thermal Free Energies=         -557.386165

                     E (Thermal)             CV                S
                      KCal/Mol        Cal/Mol-Kelvin    Cal/Mol-Kelvin
 Total                   65.547             31.507             91.320
 Electronic               0.000              0.000              0.000
 Translational            0.889              2.981             40.806
 Rotational               0.889              2.981             29.378
 Vibrational             63.769             25.545             21.136
 Vibration     1          0.602              1.954              3.590
 Vibration     2          0.611              1.925              2.976
 Vibration     3          0.623              1.887              2.511
 Vibration     4          0.641              1.828              2.060
 Vibration     5          0.653              1.791              1.858
 Vibration     6          0.697              1.661              1.381
 Vibration     7          0.735              1.553              1.119
 Vibration     8          0.776              1.444              0.919
 Vibration     9          0.789              1.411              0.868
 Vibration    10          0.806              1.367              0.804
 Vibration    11          0.864              1.230              0.635
 Vibration    12          0.979              0.992              0.419

 Optimization completed.
    -- Stationary point found.
 Normal termination of Gaussian 09 at Fri Aug 27 03:50:18 2021.

 -----------------------------------------------------------------
 #P Geom=AllCheck Guess=TCheck SCRF=Check CCSD(T,E4T,FrzG4)/GTBas1
 -----------------------------------------------------------------

 Structure from the checkpoint file:  "/public/home/users/caep010/.cache/gau_scr/Gau-137536.chk"
 ------
 INEZUY
 ------
 Charge =  0 Multiplicity = 1

 SCF Done:  E(RHF) =  -554.255937002     A.U. after   15 cycles
 E2 =    -0.1622416481D+01 EUMP2 =    -0.55587835348255D+03
 CCSD(T)
 CCSD(T)= -0.55595074277D+03
 SDQ=-555.8861204\CCSD=-555.8814542\CCSD(T)=-555.9507428\RMSD=9.597e-09
 Normal termination of Gaussian 09 at Fri Aug 27 04:08:17 2021.

 ---------------------------------------------------------
 #P Geom=AllCheck Guess=TCheck SCRF=Check MP4=FrzG4/GTBas2
 ---------------------------------------------------------

 Structure from the checkpoint file:  "/public/home/users/caep010/.cache/gau_scr/Gau-137536.chk"
 ------
 INEZUY
 ------
 Charge =  0 Multiplicity = 1

 SCF Done:  E(RHF) =  -554.274246979     A.U. after   14 cycles
 E2 =    -0.1646179470D+01 EUMP2 =    -0.55592042644841D+03
 Normal termination of Gaussian 09 at Fri Aug 27 04:16:37 2021.

 ---------------------------------------------------------
 #P Geom=AllCheck Guess=TCheck SCRF=Check MP4=FrzG4/GTBas3
 ---------------------------------------------------------

 Structure from the checkpoint file:  "/public/home/users/caep010/.cache/gau_scr/Gau-137536.chk"
 ------
 INEZUY
 ------
 Charge =  0 Multiplicity = 1

 SCF Done:  E(RHF) =  -554.320352088     A.U. after   13 cycles
 E2 =    -0.1923701134D+01 EUMP2 =    -0.55624405322230D+03
 Normal termination of Gaussian 09 at Fri Aug 27 04:57:36 2021.

 -----------------------------------------------------------
 #P Geom=AllCheck Guess=TCheck SCRF=Check MP2=Full/GTLargeXP
 -----------------------------------------------------------

 Structure from the checkpoint file:  "/public/home/users/caep010/.cache/gau_scr/Gau-137536.chk"
 ------
 INEZUY
 ------
 Charge =  0 Multiplicity = 1

 SCF Done:  E(RHF) =  -554.464980925     A.U. after   14 cycles
 E2 =    -0.2491658585D+01 EUMP2 =    -0.55695663950959D+03
 Normal termination of Gaussian 09 at Fri Aug 27 05:05:53 2021.
 SCF Done:  E(RHF) =  -554.509019291     A.U. after   10 cycles
 Normal termination of Gaussian 09 at Fri Aug 27 05:13:44 2021.

                         Standard orientation:
 ---------------------------------------------------------------------
 Center     Atomic      Atomic             Coordinates (Angstroms)
 Number     Number       Type             X           Y           Z
 ---------------------------------------------------------------------
      1          7           0       -1.481303    1.038841   -0.016726
      2          6           0       -0.137666    1.108772    0.008223
      3          6           0        0.351507   -0.215645    0.012471
      4          7           0        1.702366   -0.639950    0.000864
      5          7           0       -1.707326   -0.277360   -0.003256
      6          7           0       -0.688083   -1.077829    0.015548
      7          7           0        0.549891    2.274678    0.068238
      8          1           0        0.070763    3.108547   -0.229535
      9          8           0        2.550669    0.267010   -0.023311
     10          7           0       -3.009662   -0.752514   -0.114942
     11          1           0       -3.555283   -0.323072    0.629386
     12          8           0        1.956284   -1.835110    0.012283
     13          1           0        1.536842    2.194962   -0.125137
     14          1           0       -2.952177   -1.755460    0.041273
 ---------------------------------------------------------------------

 SCF Done:  E(RHF) =  -554.517712505     A.U. after    8 cycles

 The electronic state is 1-A.
 Alpha  occ. eigenvalues --  -20.60478 -20.59710 -15.86129 -15.76515 -15.66604
 Alpha  occ. eigenvalues --  -15.64666 -15.62631 -15.59442 -11.35365 -11.32533
 Alpha  occ. eigenvalues --   -1.60559  -1.51846  -1.39770  -1.29908  -1.26358
 Alpha  occ. eigenvalues --   -1.21258  -1.10620  -0.98490  -0.86992  -0.85746
 Alpha  occ. eigenvalues --   -0.79132  -0.75856  -0.74965  -0.72675  -0.72162
 Alpha  occ. eigenvalues --   -0.70364  -0.68298  -0.66808  -0.56708  -0.54817
 Alpha  occ. eigenvalues --   -0.52142  -0.50630  -0.49688  -0.49160  -0.45875
 Alpha  occ. eigenvalues --   -0.42397  -0.34646
 Alpha virt. eigenvalues --    0.02925   0.03534   0.04105   0.04880   0.05663
 Alpha virt. eigenvalues --    0.06642   0.07091   0.07483   0.07907   0.08284
 Alpha virt. eigenvalues --    0.09678   0.10822   0.11547   0.12114   0.12325

 Mulliken charges:
               1
     1  N   -0.450517
     2  C    0.405743
     3  C    0.234491
     4  N    0.468616
     5  N    0.448418
     6  N   -0.311778
     7  N   -0.716448
     8  H    0.339391
     9  O   -0.456355
    10  N   -0.608116
    11  H    0.340644
    12  O   -0.400676
    13  H    0.360878
    14  H    0.345709
 Sum of Mulliken charges =  -0.00000

 Dipole moment (field-independent basis, Debye):
    X=             -4.4149    Y=              1.8493    Z=              0.6209  Tot=              4.8267
 Quadrupole moment (field-independent basis, Debye-Ang):
   XX=            -58.2450   YY=            -53.8642   ZZ=            -57.1337
   XY=             10.1708   XZ=             -5.6659   YZ=             -2.8084

 Normal termination of Gaussian 09 at Fri Aug 27 05:34:31 2021.
