 Gaussian 09, Revision E.01,
 Gaussian 09:  ES64L-G09RevE.01 30-Nov-2015

 -----
 #P G4
 -----

 ------
 JILKEU
 ------
 Symbolic Z-matrix:
 Charge =  0 Multiplicity = 1

 SCF Done:  E(RB3LYP) =  -607.376294897     A.U. after   16 cycles
 SCF Done:  E(RB3LYP) =  -607.471052589     A.U. after   14 cycles
 SCF Done:  E(RB3LYP) =  -607.528924060     A.U. after   14 cycles
 SCF Done:  E(RB3LYP) =  -607.543455493     A.U. after   14 cycles
 SCF Done:  E(RB3LYP) =  -607.540694075     A.U. after   15 cycles
 SCF Done:  E(RB3LYP) =  -607.548533060     A.U. after   12 cycles
 SCF Done:  E(RB3LYP) =  -607.546547376     A.U. after   15 cycles
 SCF Done:  E(RB3LYP) =  -607.550758711     A.U. after   11 cycles
 SCF Done:  E(RB3LYP) =  -607.551657900     A.U. after   13 cycles
 SCF Done:  E(RB3LYP) =  -607.551867895     A.U. after   12 cycles
 SCF Done:  E(RB3LYP) =  -607.551948313     A.U. after   10 cycles
 SCF Done:  E(RB3LYP) =  -607.551949871     A.U. after   10 cycles
 SCF Done:  E(RB3LYP) =  -607.551950063     A.U. after    8 cycles
 Optimization completed.
    -- Stationary point found.
 Normal termination of Gaussian 09 at Tue Aug 24 15:07:14 2021.

 ----------------------------------------------------------
 #P Geom=AllCheck Guess=TCheck SCRF=Check B3LYP/GTBas3 Freq
 ----------------------------------------------------------

 Structure from the checkpoint file:  "/public/home/users/caep010/.cache/gau_scr/Gau-223539.chk"
 ------
 JILKEU
 ------
 Charge =  0 Multiplicity = 1

 SCF Done:  E(RB3LYP) =  -607.551950063     A.U. after    1 cycles

  Exact polarizability: 110.934   4.900 111.167   0.006  -0.001  83.209
 Approx polarizability: 157.927  15.331 206.264   0.018  -0.004 148.062

                      1                      2                      3
                      A                      A                      A
 Frequencies --     52.7619                95.7347               165.4478
 Red. masses --     14.3984                 5.1127                 6.3546
 Frc consts  --      0.0236                 0.0276                 0.1025
 IR Inten    --      0.1668                 0.5685                 0.7878

                      4                      5                      6
                      A                      A                      A
 Frequencies --    188.9823               205.0011               264.7049
 Red. masses --     10.2206                 5.6574                 6.6838
 Frc consts  --      0.2151                 0.1401                 0.2759
 IR Inten    --      6.8754                 4.8913                 0.3562

                      7                      8                      9
                      A                      A                      A
 Frequencies --    326.0917               393.7823               423.1407
 Red. masses --      5.2909                 5.0985                 9.0393
 Frc consts  --      0.3315                 0.4658                 0.9536
 IR Inten    --      2.8233                 1.7566                 4.0632

                     10                     11                     12
                      A                      A                      A
 Frequencies --    493.4334               507.9681               529.8950
 Red. masses --      2.0771                 3.4883                 8.4784
 Frc consts  --      0.2980                 0.5303                 1.4026
 IR Inten    --      0.5542                 0.0074                 3.9308

                     13                     14                     15
                      A                      A                      A
 Frequencies --    614.1753               658.4555               691.5913
 Red. masses --      6.7076                 4.5731                 5.4103
 Frc consts  --      1.4907                 1.1682                 1.5247
 IR Inten    --      0.6074                21.5297                 6.1976

                     16                     17                     18
                      A                      A                      A
 Frequencies --    706.4151               762.1029               780.5623
 Red. masses --      4.4017                 2.2752                 2.8755
 Frc consts  --      1.2942                 0.7786                 1.0322
 IR Inten    --      2.6183                28.9888                 4.7962

                     19                     20                     21
                      A                      A                      A
 Frequencies --    794.7845               832.0964               847.4872
 Red. masses --      3.5239                 5.8845                 2.9713
 Frc consts  --      1.3115                 2.4005                 1.2574
 IR Inten    --      5.7184                 1.8784                 1.7285

                     22                     23                     24
                      A                      A                      A
 Frequencies --    863.8166               908.9868               914.7071
 Red. masses --      2.6175                 3.0445                 3.0847
 Frc consts  --      1.1508                 1.4821                 1.5207
 IR Inten    --      3.9740                44.9147                12.0417

                     25                     26                     27
                      A                      A                      A
 Frequencies --    941.6055               941.9227               950.6229
 Red. masses --      1.6182                 2.3941                 2.4753
 Frc consts  --      0.8453                 1.2515                 1.3179
 IR Inten    --      2.0957                 0.0692                 9.5579

                     28                     29                     30
                      A                      A                      A
 Frequencies --    973.4530               985.4026              1001.3171
 Red. masses --      3.4259                 1.6230                 2.2107
 Frc consts  --      1.9128                 0.9285                 1.3059
 IR Inten    --      0.3890                 1.1432                17.0186

                     31                     32                     33
                      A                      A                      A
 Frequencies --   1028.4131              1068.9962              1119.5609
 Red. masses --      1.8095                 1.9135                 1.2339
 Frc consts  --      1.1275                 1.2883                 0.9112
 IR Inten    --     13.0996                 1.6171                 4.2289

                     34                     35                     36
                      A                      A                      A
 Frequencies --   1128.3440              1142.5564              1170.4613
 Red. masses --      1.2551                 1.1050                 1.7268
 Frc consts  --      0.9415                 0.8499                 1.3938
 IR Inten    --      0.4758                 1.4413                 0.4264

                     37                     38                     39
                      A                      A                      A
 Frequencies --   1210.2082              1251.0007              1271.4031
 Red. masses --      1.6707                 1.4474                 1.6471
 Frc consts  --      1.4417                 1.3346                 1.5686
 IR Inten    --      5.8350                 3.6260                 1.9553

                     40                     41                     42
                      A                      A                      A
 Frequencies --   1281.3395              1290.7101              1296.1107
 Red. masses --      1.3943                 1.3003                 1.8431
 Frc consts  --      1.3487                 1.2763                 1.8242
 IR Inten    --      1.7332                 0.9713                 9.3403

                     43                     44                     45
                      A                      A                      A
 Frequencies --   1360.7811              1365.6836              1407.9693
 Red. masses --      1.7175                 4.2178                 6.3939
 Frc consts  --      1.8738                 4.6349                 7.4680
 IR Inten    --     12.3687                73.6455               100.8962

                     46                     47                     48
                      A                      A                      A
 Frequencies --   1496.8276              1638.7943              1662.7372
 Red. masses --      1.1106                 5.7245                14.3282
 Frc consts  --      1.4661                 9.0581                23.3394
 IR Inten    --      2.4324                 0.0409               225.3073

                     49                     50                     51
                      A                      A                      A
 Frequencies --   2358.0503              3056.2574              3123.1945
 Red. masses --     12.6677                 1.0598                 1.1059
 Frc consts  --     41.5004                 5.8326                 6.3556
 IR Inten    --      5.4724                34.0083                20.9675

                     52                     53                     54
                      A                      A                      A
 Frequencies --   3130.2284              3132.5138              3200.3922
 Red. masses --      1.0877                 1.0903                 1.0880
 Frc consts  --      6.2794                 6.3035                 6.5656
 IR Inten    --     35.9705                 9.6935                 0.9327

                     55                     56                     57
                      A                      A                      A
 Frequencies --   3205.1432              3219.4894              3242.6524
 Red. masses --      1.0922                 1.0866                 1.1068
 Frc consts  --      6.6109                 6.6359                 6.8567
 IR Inten    --      0.2332                 0.9941                 3.2344

 - Thermochemistry -
 -------------------
 Temperature   298.150 Kelvin.  Pressure   1.00000 Atm.
 Atom     1 has atomic number  6 and mass  12.00000

 Molecular mass:   176.05858 amu.
 Principal axes and moments of inertia in atomic units:
                           1         2         3
     Eigenvalues --  1181.591802359.062353033.42547
           X            0.99996   0.00844   0.00000
           Y           -0.00844   0.99996   0.00000
           Z           -0.00000  -0.00000   1.00000
 This molecule is an asymmetric top.
 Rotational symmetry number  1.
 Warning -- assumption of classical behavior for rotation
           may cause significant error
 Rotational temperatures (Kelvin)      0.07330     0.03672     0.02855
 Rotational constants (GHZ):           1.52738     0.76502     0.59495
 Zero-point vibrational energy     416756.6 (Joules/Mol)
                                   99.60722 (Kcal/Mol)
 Warning -- explicit consideration of  13 degrees of freedom as
           vibrations may cause significant error
 Vibrational temperatures:     75.91   137.74   238.04   271.90   294.95
          (Kelvin)            380.85   469.17   566.56   608.80   709.94
                              730.85   762.40   883.66   947.37   995.04
                             1016.37  1096.49  1123.05  1143.52  1197.20
                             1219.34  1242.84  1307.83  1316.06  1354.76
                             1355.21  1367.73  1400.58  1417.77  1440.67
                             1479.66  1538.05  1610.80  1623.43  1643.88
                             1684.03  1741.22  1799.91  1829.26  1843.56
                             1857.04  1864.81  1957.86  1964.91  2025.75
                             2153.60  2357.86  2392.30  3392.70  4397.27
                             4493.57  4503.69  4506.98  4604.64  4611.48
                             4632.12  4665.45

 Zero-point correction=                           0.158734 (Hartree/Particle)
 Thermal correction to Energy=                    0.168570
 Thermal correction to Enthalpy=                  0.169514
 Thermal correction to Gibbs Free Energy=         0.123045
 Sum of electronic and zero-point Energies=           -607.393216
 Sum of electronic and thermal Energies=              -607.383380
 Sum of electronic and thermal Enthalpies=            -607.382436
 Sum of electronic and thermal Free Energies=         -607.428906

                     E (Thermal)             CV                S
                      KCal/Mol        Cal/Mol-Kelvin    Cal/Mol-Kelvin
 Total                  105.779             39.388             97.804
 Electronic               0.000              0.000              0.000
 Translational            0.889              2.981             41.404
 Rotational               0.889              2.981             30.515
 Vibrational            104.002             33.426             25.885
 Vibration     1          0.596              1.977              4.711
 Vibration     2          0.603              1.952              3.539
 Vibration     3          0.624              1.885              2.487
 Vibration     4          0.633              1.855              2.238
 Vibration     5          0.640              1.833              2.088
 Vibration     6          0.671              1.738              1.631
 Vibration     7          0.710              1.623              1.279
 Vibration     8          0.761              1.483              0.986
 Vibration     9          0.785              1.420              0.881
 Vibration    10          0.849              1.265              0.675
 Vibration    11          0.863              1.232              0.639
 Vibration    12          0.885              1.184              0.587
 Vibration    13          0.974              1.002              0.426

 Optimization completed.
    -- Stationary point found.
 Normal termination of Gaussian 09 at Tue Aug 24 15:10:52 2021.

 -----------------------------------------------------------------
 #P Geom=AllCheck Guess=TCheck SCRF=Check CCSD(T,E4T,FrzG4)/GTBas1
 -----------------------------------------------------------------

 Structure from the checkpoint file:  "/public/home/users/caep010/.cache/gau_scr/Gau-223539.chk"
 ------
 JILKEU
 ------
 Charge =  0 Multiplicity = 1

 SCF Done:  E(RHF) =  -603.858560045     A.U. after   15 cycles
 E2 =    -0.1867264189D+01 EUMP2 =    -0.60572582423411D+03
 CCSD(T)
 CCSD(T)= -0.60584743260D+03
 605.7683404\CCSD=-605.7622164\CCSD(T)=-605.8474326\RMSD=6.591e-09\PG=C
 Normal termination of Gaussian 09 at Tue Aug 24 16:35:49 2021.

 ---------------------------------------------------------
 #P Geom=AllCheck Guess=TCheck SCRF=Check MP4=FrzG4/GTBas2
 ---------------------------------------------------------

 Structure from the checkpoint file:  "/public/home/users/caep010/.cache/gau_scr/Gau-223539.chk"
 ------
 JILKEU
 ------
 Charge =  0 Multiplicity = 1

 SCF Done:  E(RHF) =  -603.871707055     A.U. after   15 cycles
 E2 =    -0.1889069035D+01 EUMP2 =    -0.60576077608957D+03
 Normal termination of Gaussian 09 at Tue Aug 24 17:13:59 2021.

 ---------------------------------------------------------
 #P Geom=AllCheck Guess=TCheck SCRF=Check MP4=FrzG4/GTBas3
 ---------------------------------------------------------

 Structure from the checkpoint file:  "/public/home/users/caep010/.cache/gau_scr/Gau-223539.chk"
 ------
 JILKEU
 ------
 Charge =  0 Multiplicity = 1

 SCF Done:  E(RHF) =  -603.917801891     A.U. after   13 cycles
 E2 =    -0.2222844107D+01 EUMP2 =    -0.60614064599782D+03
 Normal termination of Gaussian 09 at Tue Aug 24 22:00:55 2021.

 -----------------------------------------------------------
 #P Geom=AllCheck Guess=TCheck SCRF=Check MP2=Full/GTLargeXP
 -----------------------------------------------------------

 Structure from the checkpoint file:  "/public/home/users/caep010/.cache/gau_scr/Gau-223539.chk"
 ------
 JILKEU
 ------
 Charge =  0 Multiplicity = 1

 SCF Done:  E(RHF) =  -604.055699078     A.U. after   16 cycles
 E2 =    -0.2914580140D+01 EUMP2 =    -0.60697027921857D+03
 Normal termination of Gaussian 09 at Tue Aug 24 22:17:08 2021.
 SCF Done:  E(RHF) =  -604.100958139     A.U. after   10 cycles
 Normal termination of Gaussian 09 at Tue Aug 24 22:26:43 2021.

                         Standard orientation:
 ---------------------------------------------------------------------
 Center     Atomic      Atomic             Coordinates (Angstroms)
 Number     Number       Type             X           Y           Z
 ---------------------------------------------------------------------
      1          6           0       -0.215736   -0.836089    0.747013
      2          6           0        0.758576    0.076977   -0.000212
      3          6           0        0.795226    1.516015   -0.000019
      4          6           0       -0.215985   -0.835876   -0.747495
      5          6           0       -1.673745   -0.405029   -1.126443
      6          1           0       -1.926527   -0.639953   -2.159066
      7          6           0       -1.951234    1.017720   -0.668383
      8          7           0        2.169551   -0.481643   -0.000068
      9          8           0        3.084507    0.318027   -0.000026
     10          8           0        2.283346   -1.698511    0.000151
     11          1           0        0.259005   -1.624661    1.316484
     12          6           0       -1.950611    1.017719    0.668708
     13          6           0       -1.673440   -0.405060    1.126550
     14          1           0       -1.925706   -0.640166    2.159255
     15          6           0       -2.421928   -1.181795    0.000165
     16          7           0        0.896437    2.667335   -0.000005
     17          1           0        0.258690   -1.624296   -1.317272
     18          1           0       -2.031950    1.872634   -1.325555
     19          1           0       -2.030850    1.872587    1.325966
     20          1           0       -2.214698   -2.256585    0.000073
     21          1           0       -3.499454   -1.003030    0.000315
 ---------------------------------------------------------------------

 SCF Done:  E(RHF) =  -604.109764498     A.U. after    8 cycles

 The electronic state is 1-A.
 Alpha  occ. eigenvalues --  -20.61855 -20.61227 -15.86790 -15.58210 -11.36586
 Alpha  occ. eigenvalues --  -11.29145 -11.29081 -11.29069 -11.27743 -11.27742
 Alpha  occ. eigenvalues --  -11.25789 -11.25143 -11.24972  -1.62370  -1.41933
 Alpha  occ. eigenvalues --   -1.26611  -1.22464  -1.15888  -1.03661  -1.00519
 Alpha  occ. eigenvalues --   -0.98501  -0.89090  -0.83552  -0.82835  -0.79822
 Alpha  occ. eigenvalues --   -0.75022  -0.74560  -0.73390  -0.71419  -0.70300
 Alpha  occ. eigenvalues --   -0.66482  -0.58201  -0.57216  -0.57147  -0.55600
 Alpha  occ. eigenvalues --   -0.53961  -0.53854  -0.52431  -0.51098  -0.50994
 Alpha  occ. eigenvalues --   -0.49835  -0.48324  -0.46622  -0.44887  -0.43525
 Alpha  occ. eigenvalues --   -0.36904
 Alpha virt. eigenvalues --    0.02185   0.03198   0.03674   0.03981   0.05043
 Alpha virt. eigenvalues --    0.05353   0.05465   0.06065   0.06614   0.07178
 Alpha virt. eigenvalues --    0.08339   0.08344   0.08770   0.08814   0.09165

 Mulliken charges:
               1
     1  C   -0.124334
     2  C    0.354517
     3  C    0.084066
     4  C   -0.124343
     5  C   -0.174181
     6  H    0.217072
     7  C   -0.249224
     8  N    0.468598
     9  O   -0.399456
    10  O   -0.439275
    11  H    0.261267
    12  C   -0.249309
    13  C   -0.174169
    14  H    0.217083
    15  C   -0.353789
    16  N   -0.393312
    17  H    0.261229
    18  H    0.220891
    19  H    0.220913
    20  H    0.183668
    21  H    0.192089
 Sum of Mulliken charges =  -0.00000

 Dipole moment (field-independent basis, Debye):
    X=             -5.4823    Y=             -3.0008    Z=             -0.0004  Tot=              6.2499
 Quadrupole moment (field-independent basis, Debye-Ang):
   XX=            -85.7831   YY=            -85.8157   ZZ=            -68.8300
   XY=             -0.5230   XZ=              0.0003   YZ=              0.0007

 Normal termination of Gaussian 09 at Tue Aug 24 23:32:06 2021.
