 Gaussian 09, Revision E.01,
 Gaussian 09:  ES64L-G09RevE.01 30-Nov-2015

 ----------------
 #P G4 OPT=calcfc
 ----------------

 --------
 JABLUW01
 --------
 Symbolic Z-matrix:
 Charge =  0 Multiplicity = 1

 SCF Done:  E(RB3LYP) =  -687.707540450     A.U. after   15 cycles
 SCF Done:  E(RB3LYP) =  -687.758306490     A.U. after   14 cycles
 SCF Done:  E(RB3LYP) =  -687.765021171     A.U. after   14 cycles
 SCF Done:  E(RB3LYP) =  -687.765894892     A.U. after   13 cycles
 SCF Done:  E(RB3LYP) =  -687.765927657     A.U. after   10 cycles
 SCF Done:  E(RB3LYP) =  -687.765933511     A.U. after    9 cycles
 Optimization completed.
    -- Stationary point found.
 Normal termination of Gaussian 09 at Fri Aug 27 04:07:37 2021.

 ----------------------------------------------------------
 #P Geom=AllCheck Guess=TCheck SCRF=Check B3LYP/GTBas3 Freq
 ----------------------------------------------------------

 Structure from the checkpoint file:  "/public/home/users/caep010/.cache/gau_scr/Gau-29848.chk"
 --------
 JABLUW01
 --------
 Charge =  0 Multiplicity = 1

 SCF Done:  E(RB3LYP) =  -687.765933511     A.U. after    1 cycles

  Exact polarizability: 153.486   0.256  96.848   0.001  -0.001  42.117
 Approx polarizability: 239.845  -0.821 192.961   0.000  -0.006  71.066

                      1                      2                      3
                      A                      A                      A
 Frequencies --     47.8147                71.9159               108.8135
 Red. masses --      6.5548                14.1481                 9.5118
 Frc consts  --      0.0088                 0.0431                 0.0664
 IR Inten    --      9.7251                 2.2780                 7.4682

                      4                      5                      6
                      A                      A                      A
 Frequencies --    109.7390               163.3527               251.7463
 Red. masses --      8.0124                 9.6742                 8.7772
 Frc consts  --      0.0569                 0.1521                 0.3277
 IR Inten    --      0.5467                 0.7640                 3.8559

                      7                      8                      9
                      A                      A                      A
 Frequencies --    328.6894               361.9221               463.5722
 Red. masses --     12.6388                 7.2234                 5.4658
 Frc consts  --      0.8045                 0.5575                 0.6921
 IR Inten    --      7.1147                 4.8735                 0.7172

                     10                     11                     12
                      A                      A                      A
 Frequencies --    499.4009               579.8254               617.7139
 Red. masses --     10.9337                 5.3245                 8.4858
 Frc consts  --      1.6066                 1.0547                 1.9077
 IR Inten    --      8.2408                 0.2026                 1.7053

                     13                     14                     15
                      A                      A                      A
 Frequencies --    667.4221               716.3745               727.2561
 Red. masses --      4.4330                 4.5001                12.2319
 Frc consts  --      1.1635                 1.3607                 3.8117
 IR Inten    --      3.3732                 1.1248                 1.5315

                     16                     17                     18
                      A                      A                      A
 Frequencies --    760.6429               797.2953               831.9623
 Red. masses --     11.6848                 1.3406                13.1752
 Frc consts  --      3.9832                 0.5021                 5.3730
 IR Inten    --      3.9473                55.2393               175.5187

                     19                     20                     21
                      A                      A                      A
 Frequencies --    887.8962               890.4194               949.2082
 Red. masses --      1.3777                 1.3385                 6.7804
 Frc consts  --      0.6399                 0.6253                 3.5994
 IR Inten    --     10.2015                 0.0104                10.5868

                     22                     23                     24
                      A                      A                      A
 Frequencies --    973.6574               989.9968              1020.2272
 Red. masses --      7.1527                 6.3583                 6.1669
 Frc consts  --      3.9952                 3.6716                 3.7819
 IR Inten    --     16.5880                 1.1254               147.7107

                     25                     26                     27
                      A                      A                      A
 Frequencies --   1057.3275              1103.0689              1117.1418
 Red. masses --      1.4149                 6.4262                 2.0856
 Frc consts  --      0.9319                 4.6069                 1.5336
 IR Inten    --     75.1628                35.8847                89.7035

                     28                     29                     30
                      A                      A                      A
 Frequencies --   1171.9365              1199.2405              1262.0770
 Red. masses --      4.2155                 2.3872                 3.7147
 Frc consts  --      3.4112                 2.0228                 3.4861
 IR Inten    --     65.3536                13.6923               267.6111

                     31                     32                     33
                      A                      A                      A
 Frequencies --   1324.5632              1342.6236              1352.8713
 Red. masses --      9.3969                 6.0915                 8.0782
 Frc consts  --      9.7136                 6.4697                 8.7112
 IR Inten    --    221.5873               128.5152                39.2657

                     34                     35                     36
                      A                      A                      A
 Frequencies --   1415.6465              1445.9134              1500.7581
 Red. masses --      5.0729                 7.1792                 5.4050
 Frc consts  --      5.9899                 8.8432                 7.1724
 IR Inten    --      6.1588                12.7136                 5.2544

                     37                     38                     39
                      A                      A                      A
 Frequencies --   1548.6889              1601.9734              1738.1117
 Red. masses --      7.5035                 8.3595                14.4460
 Frc consts  --     10.6033                12.6399                25.7131
 IR Inten    --     76.5480               204.4196               246.9574

                     40                     41                     42
                      A                      A                      A
 Frequencies --   3295.3549              3297.0550              3311.7336
 Red. masses --      1.0922                 1.1006                 1.1066
 Frc consts  --      6.9884                 7.0491                 7.1506
 IR Inten    --      8.7752                 6.4140                11.3534

 - Thermochemistry -
 -------------------
 Temperature   298.150 Kelvin.  Pressure   1.00000 Atm.
 Atom     1 has atomic number  8 and mass  15.99491

 Molecular mass:   181.03482 amu.
 Principal axes and moments of inertia in atomic units:
                           1         2         3
     Eigenvalues --   651.433124228.107884879.54093
           X            0.99997  -0.00763   0.00000
           Y            0.00763   0.99997   0.00001
           Z           -0.00000  -0.00001   1.00000
 This molecule is an asymmetric top.
 Rotational symmetry number  1.
 Warning -- assumption of classical behavior for rotation
           may cause significant error
 Rotational temperatures (Kelvin)      0.13296     0.02049     0.01775
 Rotational constants (GHZ):           2.77042     0.42684     0.36986
 Zero-point vibrational energy     262598.0 (Joules/Mol)
                                   62.76242 (Kcal/Mol)
 Warning -- explicit consideration of  12 degrees of freedom as
           vibrations may cause significant error
 Vibrational temperatures:     68.79   103.47   156.56   157.89   235.03
          (Kelvin)            362.21   472.91   520.72   666.98   718.53
                              834.24   888.75   960.27  1030.70  1046.36
                             1094.39  1147.13  1197.01  1277.48  1281.11
                             1365.70  1400.87  1424.38  1467.88  1521.26
                             1587.07  1607.32  1686.15  1725.44  1815.85
                             1905.75  1931.73  1946.48  2036.80  2080.34
                             2159.25  2228.22  2304.88  2500.75  4741.27
                             4743.72  4764.84

 Zero-point correction=                           0.100018 (Hartree/Particle)
 Thermal correction to Energy=                    0.109578
 Thermal correction to Enthalpy=                  0.110522
 Thermal correction to Gibbs Free Energy=         0.063176
 Sum of electronic and zero-point Energies=           -687.665915
 Sum of electronic and thermal Energies=              -687.656356
 Sum of electronic and thermal Enthalpies=            -687.655412
 Sum of electronic and thermal Free Energies=         -687.702758

                     E (Thermal)             CV                S
                      KCal/Mol        Cal/Mol-Kelvin    Cal/Mol-Kelvin
 Total                   68.761             34.578             99.648
 Electronic               0.000              0.000              0.000
 Translational            0.889              2.981             41.487
 Rotational               0.889              2.981             30.975
 Vibrational             66.984             28.616             27.186
 Vibration     1          0.595              1.978              4.906
 Vibration     2          0.598              1.967              4.100
 Vibration     3          0.606              1.942              3.290
 Vibration     4          0.606              1.941              3.274
 Vibration     5          0.623              1.887              2.511
 Vibration     6          0.664              1.760              1.718
 Vibration     7          0.712              1.618              1.267
 Vibration     8          0.736              1.551              1.114
 Vibration     9          0.821              1.331              0.756
 Vibration    10          0.855              1.251              0.660
 Vibration    11          0.936              1.075              0.486
 Vibration    12          0.977              0.994              0.420

 Optimization completed.
    -- Stationary point found.
 Normal termination of Gaussian 09 at Fri Aug 27 04:10:04 2021.

 -----------------------------------------------------------------
 #P Geom=AllCheck Guess=TCheck SCRF=Check CCSD(T,E4T,FrzG4)/GTBas1
 -----------------------------------------------------------------

 Structure from the checkpoint file:  "/public/home/users/caep010/.cache/gau_scr/Gau-29848.chk"
 --------
 JABLUW01
 --------
 Charge =  0 Multiplicity = 1

 SCF Done:  E(RHF) =  -683.814511494     A.U. after   15 cycles
 E2 =    -0.2034780891D+01 EUMP2 =    -0.68584929238420D+03
 CCSD(T)
 CCSD(T)= -0.68594407333D+03
 49627\CCSD=-685.8480065\CCSD(T)=-685.9440733\RMSD=7.580e-09\PG=C01 [X(
 Normal termination of Gaussian 09 at Fri Aug 27 05:21:18 2021.

 ---------------------------------------------------------
 #P Geom=AllCheck Guess=TCheck SCRF=Check MP4=FrzG4/GTBas2
 ---------------------------------------------------------

 Structure from the checkpoint file:  "/public/home/users/caep010/.cache/gau_scr/Gau-29848.chk"
 --------
 JABLUW01
 --------
 Charge =  0 Multiplicity = 1

 SCF Done:  E(RHF) =  -683.832525777     A.U. after   14 cycles
 E2 =    -0.2058410067D+01 EUMP2 =    -0.68589093584448D+03
 Normal termination of Gaussian 09 at Fri Aug 27 05:50:42 2021.

 ---------------------------------------------------------
 #P Geom=AllCheck Guess=TCheck SCRF=Check MP4=FrzG4/GTBas3
 ---------------------------------------------------------

 Structure from the checkpoint file:  "/public/home/users/caep010/.cache/gau_scr/Gau-29848.chk"
 --------
 JABLUW01
 --------
 Charge =  0 Multiplicity = 1

 SCF Done:  E(RHF) =  -683.883337766     A.U. after   12 cycles
 E2 =    -0.2388918360D+01 EUMP2 =    -0.68627225612665D+03
 Normal termination of Gaussian 09 at Fri Aug 27 09:03:17 2021.

 -----------------------------------------------------------
 #P Geom=AllCheck Guess=TCheck SCRF=Check MP2=Full/GTLargeXP
 -----------------------------------------------------------

 Structure from the checkpoint file:  "/public/home/users/caep010/.cache/gau_scr/Gau-29848.chk"
 --------
 JABLUW01
 --------
 Charge =  0 Multiplicity = 1

 SCF Done:  E(RHF) =  -684.050958899     A.U. after   14 cycles
 E2 =    -0.3104982596D+01 EUMP2 =    -0.68715594149540D+03
 Normal termination of Gaussian 09 at Fri Aug 27 09:22:58 2021.
 SCF Done:  E(RHF) =  -684.105102302     A.U. after    9 cycles
 Normal termination of Gaussian 09 at Fri Aug 27 09:28:14 2021.

                         Standard orientation:
 ---------------------------------------------------------------------
 Center     Atomic      Atomic             Coordinates (Angstroms)
 Number     Number       Type             X           Y           Z
 ---------------------------------------------------------------------
      1          8           0       -3.888306    0.275940   -0.000224
      2          7           0       -2.944901   -0.486568   -0.000074
      3          8           0       -2.926255   -1.688227    0.000177
      4          7           0       -1.666559    0.166458   -0.000259
      5          6           0       -1.467262    1.520897   -0.000141
      6          6           0       -0.109246    1.691921    0.000195
      7          1           0        0.449840    2.610905    0.000720
      8          6           0        0.402248    0.366400    0.000344
      9          7           0        1.746735   -0.008833    0.000372
     10          7           0        2.739013    0.921768    0.000033
     11          6           0        2.326938   -1.231305    0.000185
     12          1           0        1.773574   -2.155657   -0.000267
     13          7           0        3.845353    0.268868   -0.000392
     14          7           0        3.628282   -1.079505   -0.000260
     15          1           0       -2.296651    2.206544   -0.000267
     16          7           0       -0.537400   -0.560898    0.000108
 ---------------------------------------------------------------------

 SCF Done:  E(RHF) =  -684.115211134     A.U. after    7 cycles

 The electronic state is 1-A.
 Alpha  occ. eigenvalues --  -20.65182 -20.64438 -15.93766 -15.74173 -15.70435
 Alpha  occ. eigenvalues --  -15.67924 -15.66557 -15.65007 -15.61701 -11.37630
 Alpha  occ. eigenvalues --  -11.35049 -11.34740 -11.28769  -1.67899  -1.51199
 Alpha  occ. eigenvalues --   -1.46791  -1.45581  -1.30184  -1.21718  -1.18707
 Alpha  occ. eigenvalues --   -1.13489  -1.00926  -0.93385  -0.91342  -0.85829
 Alpha  occ. eigenvalues --   -0.84717  -0.81971  -0.80007  -0.78787  -0.76374
 Alpha  occ. eigenvalues --   -0.71365  -0.69309  -0.67024  -0.66094  -0.65421
 Alpha  occ. eigenvalues --   -0.58806  -0.55507  -0.55030  -0.53271  -0.51616
 Alpha  occ. eigenvalues --   -0.50540  -0.49408  -0.48811  -0.43663  -0.41708
 Alpha  occ. eigenvalues --   -0.39919
 Alpha virt. eigenvalues --    0.02030   0.02574   0.03881   0.04292   0.04310
 Alpha virt. eigenvalues --    0.05429   0.06014   0.06224   0.06826   0.07426
 Alpha virt. eigenvalues --    0.07914   0.08151   0.09018   0.09470   0.09509

 Mulliken charges:
               1
     1  O   -0.401287
     2  N    0.614277
     3  O   -0.355401
     4  N    0.116130
     5  C   -0.145665
     6  C   -0.244756
     7  H    0.273472
     8  C    0.407993
     9  N    0.109449
    10  N   -0.107282
    11  C    0.021827
    12  H    0.280194
    13  N   -0.139248
    14  N   -0.331996
    15  H    0.287043
    16  N   -0.384748
 Sum of Mulliken charges =  -0.00000

 Dipole moment (field-independent basis, Debye):
    X=             -2.6763    Y=              2.2386    Z=              0.0010  Tot=              3.4891
 Quadrupole moment (field-independent basis, Debye-Ang):
   XX=           -103.7713   YY=            -69.3750   ZZ=            -72.1001
   XY=             -7.0061   XZ=              0.0042   YZ=              0.0022

 Normal termination of Gaussian 09 at Fri Aug 27 10:04:30 2021.
