 Gaussian 09, Revision E.01,
 Gaussian 09:  ES64L-G09RevE.01 30-Nov-2015

 ----------------
 #P G4 OPT=calcfc
 ----------------

 ------
 JEDSUG
 ------
 Symbolic Z-matrix:
 Charge =  0 Multiplicity = 1

 SCF Done:  E(RB3LYP) =  -711.582078155     A.U. after   16 cycles
 SCF Done:  E(RB3LYP) =  -711.645019102     A.U. after   15 cycles
 SCF Done:  E(RB3LYP) =  -711.659138960     A.U. after   16 cycles
 SCF Done:  E(RB3LYP) =  -711.659562257     A.U. after   16 cycles
 SCF Done:  E(RB3LYP) =  -711.649342355     A.U. after   16 cycles
 SCF Done:  E(RB3LYP) =  -711.655760489     A.U. after   13 cycles
 SCF Done:  E(RB3LYP) =  -711.659793064     A.U. after   13 cycles
 SCF Done:  E(RB3LYP) =  -711.663320385     A.U. after   15 cycles
 SCF Done:  E(RB3LYP) =  -711.664005029     A.U. after   14 cycles
 SCF Done:  E(RB3LYP) =  -711.663992439     A.U. after   15 cycles
 SCF Done:  E(RB3LYP) =  -711.664249207     A.U. after   10 cycles
 SCF Done:  E(RB3LYP) =  -711.664250022     A.U. after    9 cycles
 SCF Done:  E(RB3LYP) =  -711.664250114     A.U. after    8 cycles
 Optimization completed.
    -- Stationary point found.
 Normal termination of Gaussian 09 at Wed Aug 25 08:58:20 2021.

 ----------------------------------------------------------
 #P Geom=AllCheck Guess=TCheck SCRF=Check B3LYP/GTBas3 Freq
 ----------------------------------------------------------

 Structure from the checkpoint file:  "/public/home/users/caep010/.cache/gau_scr/Gau-115908.chk"
 ------
 JEDSUG
 ------
 Charge =  0 Multiplicity = 1

 SCF Done:  E(RB3LYP) =  -711.664250114     A.U. after    1 cycles

  Exact polarizability: 105.509  -0.001  88.720  -1.692  -0.001  45.706
 Approx polarizability: 147.450  -0.001 180.213  -5.106  -0.000  74.880

                      1                      2                      3
                      A                      A                      A
 Frequencies --     59.7511                62.6012                68.6150
 Red. masses --     12.3926                12.6850                13.9784
 Frc consts  --      0.0261                 0.0293                 0.0388
 IR Inten    --      2.1063                 0.0222                 1.8946

                      4                      5                      6
                      A                      A                      A
 Frequencies --    137.2347               179.0189               198.9826
 Red. masses --      5.0778                10.4795                 4.2112
 Frc consts  --      0.0563                 0.1979                 0.0982
 IR Inten    --      0.0014                 3.5612                 0.7447

                      7                      8                      9
                      A                      A                      A
 Frequencies --    217.6063               283.1006               336.8472
 Red. masses --      2.3782                 9.5171                14.1150
 Frc consts  --      0.0663                 0.4494                 0.9436
 IR Inten    --      1.9398                 2.3205                 0.1784

                     10                     11                     12
                      A                      A                      A
 Frequencies --    408.3220               469.1203               524.1296
 Red. masses --     10.9449                 6.2440                13.6050
 Frc consts  --      1.0751                 0.8096                 2.2020
 IR Inten    --      0.1013                 8.9002                 3.5904

                     13                     14                     15
                      A                      A                      A
 Frequencies --    692.6528               707.3618               722.4427
 Red. masses --      3.7365                 8.5466                 7.6553
 Frc consts  --      1.0562                 2.5196                 2.3541
 IR Inten    --      1.7912                14.2160                31.0773

                     16                     17                     18
                      A                      A                      A
 Frequencies --    739.1229               779.9929               782.6472
 Red. masses --      9.4671                13.6024                12.7240
 Frc consts  --      3.0472                 4.8758                 4.5921
 IR Inten    --     35.8503                 0.1482                31.5289

                     19                     20                     21
                      A                      A                      A
 Frequencies --    843.2469               873.8167               942.6690
 Red. masses --     12.3280                 1.7463                 4.6622
 Frc consts  --      5.1648                 0.7856                 2.4410
 IR Inten    --      3.9600               117.3497                33.3905

                     22                     23                     24
                      A                      A                      A
 Frequencies --   1003.1154              1112.7649              1118.8026
 Red. masses --      2.2755                 4.0873                 5.3370
 Frc consts  --      1.3491                 2.9819                 3.9360
 IR Inten    --      1.4833                 0.0112               933.4066

                     25                     26                     27
                      A                      A                      A
 Frequencies --   1124.5306              1224.5729              1225.1881
 Red. masses --      1.7252                 3.7512                 1.5549
 Frc consts  --      1.2854                 3.3143                 1.3752
 IR Inten    --      4.5363                11.1437               117.6487

                     28                     29                     30
                      A                      A                      A
 Frequencies --   1247.7320              1264.3162              1308.3135
 Red. masses --      3.2232                 1.5418                 2.9460
 Frc consts  --      2.9565                 1.4520                 2.9711
 IR Inten    --     78.5202                15.5053               432.8815

                     31                     32                     33
                      A                      A                      A
 Frequencies --   1332.9529              1383.3535              1397.4888
 Red. masses --      5.2672                 1.9992                 2.2688
 Frc consts  --      5.5139                 2.2541                 2.6107
 IR Inten    --      2.1178                 1.1459                30.4812

                     34                     35                     36
                      A                      A                      A
 Frequencies --   1516.6632              1526.7463              1692.6197
 Red. masses --      1.0930                 1.0875                14.4593
 Frc consts  --      1.4814                 1.4935                24.4070
 IR Inten    --      9.1089                 0.1415               342.2334

                     37                     38                     39
                      A                      A                      A
 Frequencies --   1696.0964              1910.0944              3066.1513
 Red. masses --     14.4599                13.0743                 1.0690
 Frc consts  --     24.5084                28.1047                 5.9215
 IR Inten    --     29.3411               401.3321                10.4776

                     40                     41                     42
                      A                      A                      A
 Frequencies --   3070.6072              3141.0250              3150.0565
 Red. masses --      1.0630                 1.0985                 1.1034
 Frc consts  --      5.9054                 6.3855                 6.4509
 IR Inten    --     10.2059                 2.9157                 4.7879

 - Thermochemistry -
 -------------------
 Temperature   298.150 Kelvin.  Pressure   1.00000 Atm.
 Atom     1 has atomic number  6 and mass  12.00000

 Molecular mass:   176.01817 amu.
 Principal axes and moments of inertia in atomic units:
                           1         2         3
     Eigenvalues --   805.233702810.399343563.48781
           X            1.00000  -0.00000  -0.00110
           Y            0.00000   1.00000  -0.00000
           Z            0.00110   0.00000   1.00000
 This molecule is an asymmetric top.
 Rotational symmetry number  1.
 Warning -- assumption of classical behavior for rotation
           may cause significant error
 Rotational temperatures (Kelvin)      0.10756     0.03082     0.02431
 Rotational constants (GHZ):           2.24126     0.64217     0.50645
 Zero-point vibrational energy     272404.5 (Joules/Mol)
                                   65.10623 (Kcal/Mol)
 Warning -- explicit consideration of  12 degrees of freedom as
           vibrations may cause significant error
 Vibrational temperatures:     85.97    90.07    98.72   197.45   257.57
          (Kelvin)            286.29   313.09   407.32   484.65   587.48
                              674.96   754.10   996.57  1017.73  1039.43
                             1063.43  1122.23  1126.05  1213.24  1257.23
                             1356.29  1443.26  1601.02  1609.71  1617.95
                             1761.89  1762.77  1795.21  1819.07  1882.37
                             1917.82  1990.33  2010.67  2182.14  2196.64
                             2435.30  2440.30  2748.20  4411.50  4417.91
                             4519.23  4532.22

 Zero-point correction=                           0.103753 (Hartree/Particle)
 Thermal correction to Energy=                    0.113917
 Thermal correction to Enthalpy=                  0.114861
 Thermal correction to Gibbs Free Energy=         0.066494
 Sum of electronic and zero-point Energies=           -711.560497
 Sum of electronic and thermal Energies=              -711.550334
 Sum of electronic and thermal Enthalpies=            -711.549389
 Sum of electronic and thermal Free Energies=         -711.597756

                     E (Thermal)             CV                S
                      KCal/Mol        Cal/Mol-Kelvin    Cal/Mol-Kelvin
 Total                   71.484             35.333            101.797
 Electronic               0.000              0.000              0.000
 Translational            0.889              2.981             41.403
 Rotational               0.889              2.981             30.468
 Vibrational             69.706             29.371             29.926
 Vibration     1          0.597              1.973              4.465
 Vibration     2          0.597              1.972              4.373
 Vibration     3          0.598              1.969              4.193
 Vibration     4          0.614              1.916              2.842
 Vibration     5          0.629              1.868              2.339
 Vibration     6          0.637              1.841              2.142
 Vibration     7          0.646              1.814              1.979
 Vibration     8          0.682              1.705              1.515
 Vibration     9          0.718              1.602              1.227
 Vibration    10          0.773              1.452              0.933
 Vibration    11          0.826              1.319              0.740
 Vibration    12          0.879              1.197              0.600

 Optimization completed.
    -- Stationary point found.
 Normal termination of Gaussian 09 at Wed Aug 25 09:00:28 2021.

 -----------------------------------------------------------------
 #P Geom=AllCheck Guess=TCheck SCRF=Check CCSD(T,E4T,FrzG4)/GTBas1
 -----------------------------------------------------------------

 Structure from the checkpoint file:  "/public/home/users/caep010/.cache/gau_scr/Gau-115908.chk"
 ------
 JEDSUG
 ------
 Charge =  0 Multiplicity = 1

 SCF Done:  E(RHF) =  -707.735404121     A.U. after   16 cycles
 E2 =    -0.1970352440D+01 EUMP2 =    -0.70970575656124D+03
 CCSD(T)
 CCSD(T)= -0.70978870444D+03
 8176297\MP4SDQ=-709.7169026\CCSD=-709.7056033\CCSD(T)=-709.7887044\RMS
 Normal termination of Gaussian 09 at Wed Aug 25 09:57:39 2021.

 ---------------------------------------------------------
 #P Geom=AllCheck Guess=TCheck SCRF=Check MP4=FrzG4/GTBas2
 ---------------------------------------------------------

 Structure from the checkpoint file:  "/public/home/users/caep010/.cache/gau_scr/Gau-115908.chk"
 ------
 JEDSUG
 ------
 Charge =  0 Multiplicity = 1

 SCF Done:  E(RHF) =  -707.753622325     A.U. after   13 cycles
 E2 =    -0.1996459206D+01 EUMP2 =    -0.70975008153088D+03
 Normal termination of Gaussian 09 at Wed Aug 25 10:18:38 2021.

 ---------------------------------------------------------
 #P Geom=AllCheck Guess=TCheck SCRF=Check MP4=FrzG4/GTBas3
 ---------------------------------------------------------

 Structure from the checkpoint file:  "/public/home/users/caep010/.cache/gau_scr/Gau-115908.chk"
 ------
 JEDSUG
 ------
 Charge =  0 Multiplicity = 1

 SCF Done:  E(RHF) =  -707.810535978     A.U. after   12 cycles
 E2 =    -0.2358069820D+01 EUMP2 =    -0.71016860579715D+03
 Normal termination of Gaussian 09 at Wed Aug 25 12:35:03 2021.

 -----------------------------------------------------------
 #P Geom=AllCheck Guess=TCheck SCRF=Check MP2=Full/GTLargeXP
 -----------------------------------------------------------

 Structure from the checkpoint file:  "/public/home/users/caep010/.cache/gau_scr/Gau-115908.chk"
 ------
 JEDSUG
 ------
 Charge =  0 Multiplicity = 1

 SCF Done:  E(RHF) =  -707.995343707     A.U. after   13 cycles
 E2 =    -0.3048019023D+01 EUMP2 =    -0.71104336273031D+03
 Normal termination of Gaussian 09 at Wed Aug 25 12:49:36 2021.
 SCF Done:  E(RHF) =  -708.053002216     A.U. after    9 cycles
 Normal termination of Gaussian 09 at Wed Aug 25 12:54:13 2021.

                         Standard orientation:
 ---------------------------------------------------------------------
 Center     Atomic      Atomic             Coordinates (Angstroms)
 Number     Number       Type             X           Y           Z
 ---------------------------------------------------------------------
      1          6           0        0.000018   -0.658939    0.000010
      2          8           0        0.000009   -1.846507    0.000024
      3          7           0       -1.092800    0.231969   -0.186258
      4          7           0       -2.437138   -0.179226   -0.037962
      5          8           0       -3.209480    0.730881    0.215664
      6          8           0       -2.687039   -1.348272   -0.202580
      7          6           0       -0.761967    1.625150    0.101054
      8          7           0        1.092825    0.231943    0.186269
      9          6           0        0.762022    1.625140   -0.101046
     10          1           0        1.276317    2.296402    0.585242
     11          1           0        1.043514    1.885500   -1.125708
     12          1           0       -1.043484    1.885562    1.125689
     13          7           0        2.437100   -0.179232    0.037951
     14          8           0        2.687023   -1.348283    0.202533
     15          8           0        3.209440    0.730896   -0.215637
     16          1           0       -1.276318    2.296522   -0.585361
 ---------------------------------------------------------------------

 SCF Done:  E(RHF) =  -708.064403588     A.U. after    8 cycles

 The electronic state is 1-A.
 Alpha  occ. eigenvalues --  -20.63653 -20.63653 -20.63216 -20.63215 -20.58818
 Alpha  occ. eigenvalues --  -15.92423 -15.92423 -15.70195 -15.70192 -11.45846
 Alpha  occ. eigenvalues --  -11.33898 -11.33837  -1.66495  -1.66321  -1.47398
 Alpha  occ. eigenvalues --   -1.45027  -1.44995  -1.37167  -1.29919  -1.10629
 Alpha  occ. eigenvalues --   -1.03675  -0.97561  -0.89849  -0.84760  -0.81004
 Alpha  occ. eigenvalues --   -0.80745  -0.79548  -0.78273  -0.76813  -0.74899
 Alpha  occ. eigenvalues --   -0.72064  -0.68935  -0.68036  -0.63122  -0.62363
 Alpha  occ. eigenvalues --   -0.62158  -0.55821  -0.55315  -0.53312  -0.52367
 Alpha  occ. eigenvalues --   -0.49768  -0.49497  -0.48993  -0.47937  -0.47152
 Alpha virt. eigenvalues --    0.02053   0.03215   0.03960   0.04529   0.05269
 Alpha virt. eigenvalues --    0.05914   0.06369   0.06701   0.06878   0.07307
 Alpha virt. eigenvalues --    0.08210   0.09370   0.09859   0.10371   0.11556

 Mulliken charges:
               1
     1  C    0.467368
     2  O   -0.465720
     3  N   -0.004220
     4  N    0.559239
     5  O   -0.421370
     6  O   -0.341459
     7  C   -0.229733
     8  N   -0.004181
     9  C   -0.229722
    10  H    0.225338
    11  H    0.211376
    12  H    0.211378
    13  N    0.559232
    14  O   -0.341474
    15  O   -0.421390
    16  H    0.225338
 Sum of Mulliken charges =  -0.00000

 Dipole moment (field-independent basis, Debye):
    X=             -0.0001    Y=              5.8138    Z=              0.0000  Tot=              5.8138
 Quadrupole moment (field-independent basis, Debye-Ang):
   XX=            -89.5846   YY=            -70.1627   ZZ=            -63.2900
   XY=              0.0002   XZ=              0.6418   YZ=             -0.0000

 Normal termination of Gaussian 09 at Wed Aug 25 13:28:57 2021.
