 Gaussian 09, Revision E.01,
 Gaussian 09:  ES64L-G09RevE.01 30-Nov-2015

 ----------------
 #P G4 OPT=calcfc
 ----------------

 ------
 JOLNED
 ------
 Symbolic Z-matrix:
 Charge =  0 Multiplicity = 1

 SCF Done:  E(RB3LYP) =  -679.993534879     A.U. after   16 cycles
 SCF Done:  E(RB3LYP) =  -680.125861166     A.U. after   14 cycles
 SCF Done:  E(RB3LYP) =  -680.221542046     A.U. after   15 cycles
 SCF Done:  E(RB3LYP) =  -680.222128026     A.U. after   14 cycles
 SCF Done:  E(RB3LYP) =  -680.164795771     A.U. after   15 cycles
 SCF Done:  E(RB3LYP) =  -680.222436045     A.U. after   10 cycles
 SCF Done:  E(RB3LYP) =  -680.223639314     A.U. after   13 cycles
 SCF Done:  E(RB3LYP) =  -680.223848508     A.U. after   12 cycles
 SCF Done:  E(RB3LYP) =  -680.223866737     A.U. after   11 cycles
 SCF Done:  E(RB3LYP) =  -680.223872858     A.U. after   10 cycles
 SCF Done:  E(RB3LYP) =  -680.223883008     A.U. after   11 cycles
 SCF Done:  E(RB3LYP) =  -680.223883617     A.U. after    9 cycles
 SCF Done:  E(RB3LYP) =  -680.223883728     A.U. after    8 cycles
 Optimization completed.
    -- Stationary point found.
 Normal termination of Gaussian 09 at Thu Aug 26 22:02:44 2021.

 ----------------------------------------------------------
 #P Geom=AllCheck Guess=TCheck SCRF=Check B3LYP/GTBas3 Freq
 ----------------------------------------------------------

 Structure from the checkpoint file:  "/public/home/users/caep010/.cache/gau_scr/Gau-71738.chk"
 ------
 JOLNED
 ------
 Charge =  0 Multiplicity = 1

 SCF Done:  E(RB3LYP) =  -680.223883728     A.U. after    1 cycles

  Exact polarizability: 263.307  -4.302 122.837   0.002   0.003  60.420
 Approx polarizability: 385.377 -15.775 231.232  -0.006   0.009  97.481

                      1                      2                      3
                      A                      A                      A
 Frequencies --     17.2197                53.1020                65.0549
 Red. masses --      3.3011                 3.9295                 2.7389
 Frc consts  --      0.0006                 0.0065                 0.0068
 IR Inten    --      0.0003                 0.1594                 0.4986

                      4                      5                      6
                      A                      A                      A
 Frequencies --     71.2218                91.7927               136.3614
 Red. masses --      2.9669                 4.7280                 1.6749
 Frc consts  --      0.0089                 0.0235                 0.0183
 IR Inten    --      0.6529                 0.2583                 4.2444

                      7                      8                      9
                      A                      A                      A
 Frequencies --    178.7116               221.6786               226.9020
 Red. masses --      1.4505                 5.4069                 2.5523
 Frc consts  --      0.0273                 0.1565                 0.0774
 IR Inten    --      4.0573                 1.7414                 0.0095

                     10                     11                     12
                      A                      A                      A
 Frequencies --    245.0002               341.2447               350.7354
 Red. masses --      6.0109                 4.4087                 6.0450
 Frc consts  --      0.2126                 0.3025                 0.4381
 IR Inten    --      0.7188                 1.9489                 0.0009

                     13                     14                     15
                      A                      A                      A
 Frequencies --    395.5145               399.8353               426.1998
 Red. masses --      7.3915                 3.2359                 3.2601
 Frc consts  --      0.6813                 0.3048                 0.3489
 IR Inten    --      0.1966                 0.1526                 0.0001

                     16                     17                     18
                      A                      A                      A
 Frequencies --    510.9343               534.6558               535.6095
 Red. masses --      5.5914                 6.3199                 3.0356
 Frc consts  --      0.8600                 1.0644                 0.5131
 IR Inten    --     19.3617                 5.5897                 3.1154

                     19                     20                     21
                      A                      A                      A
 Frequencies --    586.7479               645.0582               702.7122
 Red. masses --      5.2342                 7.0907                 6.7510
 Frc consts  --      1.0617                 1.7383                 1.9641
 IR Inten    --     16.1700                 1.1091                 0.3505

                     22                     23                     24
                      A                      A                      A
 Frequencies --    720.4225               793.7698               831.6008
 Red. masses --      3.5971                 5.1807                 5.1349
 Frc consts  --      1.1000                 1.9232                 2.0923
 IR Inten    --     15.0091                11.9639                 0.6336

                     25                     26                     27
                      A                      A                      A
 Frequencies --    859.0321               869.7931               904.8278
 Red. masses --      1.2480                 8.3193                 1.8564
 Frc consts  --      0.5426                 3.7083                 0.8955
 IR Inten    --      0.0215                69.3032                27.6564

                     28                     29                     30
                      A                      A                      A
 Frequencies --    934.7342               980.7875              1007.2675
 Red. masses --      4.7672                 1.3150                 1.3520
 Frc consts  --      2.4541                 0.7453                 0.8082
 IR Inten    --      6.1896                 0.0003                 0.0462

                     31                     32                     33
                      A                      A                      A
 Frequencies --   1019.1329              1063.4128              1112.4454
 Red. masses --      2.6870                 1.4577                 1.8630
 Frc consts  --      1.6443                 0.9712                 1.3584
 IR Inten    --      0.0144                32.9188               203.4261

                     34                     35                     36
                      A                      A                      A
 Frequencies --   1120.8815              1122.1464              1126.5656
 Red. masses --      1.2501                 1.5141                 2.0114
 Frc consts  --      0.9254                 1.1233                 1.5040
 IR Inten    --      0.0375               119.3967                19.9217

                     37                     38                     39
                      A                      A                      A
 Frequencies --   1161.0641              1182.8771              1244.5047
 Red. masses --      1.3427                 1.4281                 4.0034
 Frc consts  --      1.0665                 1.1773                 3.6532
 IR Inten    --      0.3974                23.9045                66.6328

                     40                     41                     42
                      A                      A                      A
 Frequencies --   1305.6018              1341.1817              1368.6640
 Red. masses --      1.3986                 4.1811                 7.2574
 Frc consts  --      1.4047                 4.4311                 8.0098
 IR Inten    --      1.1486               177.1416                13.6968

                     43                     44                     45
                      A                      A                      A
 Frequencies --   1378.1926              1393.7004              1430.3739
 Red. masses --      5.4749                 3.6827                 3.0001
 Frc consts  --      6.1270                 4.2146                 3.6165
 IR Inten    --    967.6114                17.3681                54.7152

                     46                     47                     48
                      A                      A                      A
 Frequencies --   1438.1213              1460.6252              1462.2211
 Red. masses --      1.1890                 1.9667                 1.0425
 Frc consts  --      1.4489                 2.4721                 1.3133
 IR Inten    --     31.4278                10.6047                 9.3743

                     49                     50                     51
                      A                      A                      A
 Frequencies --   1481.6858              1497.8132              1504.4962
 Red. masses --      1.0426                 2.2511                 1.2369
 Frc consts  --      1.3486                 2.9755                 1.6495
 IR Inten    --      4.7168               139.9128               153.7639

                     52                     53                     54
                      A                      A                      A
 Frequencies --   1514.6479              1527.9086              1596.3951
 Red. masses --      1.9380                 1.4316                10.0883
 Frc consts  --      2.6195                 1.9691                15.1478
 IR Inten    --     51.2072               110.8176                94.4608

                     55                     56                     57
                      A                      A                      A
 Frequencies --   1634.3102              1649.5728              3019.8791
 Red. masses --      6.4154                 9.7503                 1.0368
 Frc consts  --     10.0959                15.6319                 5.5711
 IR Inten    --     61.9367               115.4432                75.9725

                     58                     59                     60
                      A                      A                      A
 Frequencies --   3041.0553              3071.9842              3098.4619
 Red. masses --      1.0332                 1.1040                 1.1023
 Frc consts  --      5.6299                 6.1385                 6.2351
 IR Inten    --     42.3703                24.4608                 9.4938

                     61                     62                     63
                      A                      A                      A
 Frequencies --   3150.4470              3158.9415              3203.0547
 Red. masses --      1.1030                 1.0978                 1.0892
 Frc consts  --      6.4503                 6.4547                 6.5842
 IR Inten    --      9.3082                 4.3513                 3.4027

                     64                     65                     66
                      A                      A                      A
 Frequencies --   3218.6591              3234.0764              3235.8026
 Red. masses --      1.0872                 1.0935                 1.0927
 Frc consts  --      6.6363                 6.7388                 6.7410
 IR Inten    --      0.9835                 0.1628                 0.6627

 - Thermochemistry -
 -------------------
 Temperature   298.150 Kelvin.  Pressure   1.00000 Atm.
 Atom     1 has atomic number  8 and mass  15.99491

 Molecular mass:   194.08038 amu.
 Principal axes and moments of inertia in atomic units:
                           1         2         3
     Eigenvalues --   695.912346887.021517560.33466
           X            1.00000  -0.00278   0.00000
           Y            0.00278   1.00000  -0.00000
           Z           -0.00000   0.00000   1.00000
 This molecule is an asymmetric top.
 Rotational symmetry number  1.
 Warning -- assumption of classical behavior for rotation
           may cause significant error
 Rotational temperatures (Kelvin)      0.12446     0.01258     0.01146
 Rotational constants (GHZ):           2.59335     0.26205     0.23871
 Zero-point vibrational energy     485740.3 (Joules/Mol)
                                  116.09471 (Kcal/Mol)
 Warning -- explicit consideration of  19 degrees of freedom as
           vibrations may cause significant error
 Vibrational temperatures:     24.78    76.40    93.60   102.47   132.07
          (Kelvin)            196.19   257.13   318.95   326.46   352.50
                              490.97   504.63   569.06   575.27   613.21
                              735.12   769.25   770.62   844.20   928.09
                             1011.04  1036.53  1142.06  1196.49  1235.95
                             1251.44  1301.84  1344.87  1411.13  1449.23
                             1466.30  1530.01  1600.56  1612.70  1614.52
                             1620.87  1670.51  1701.89  1790.56  1878.47
                             1929.66  1969.20  1982.91  2005.22  2057.99
                             2069.13  2101.51  2103.81  2131.81  2155.02
                             2164.63  2179.24  2198.32  2296.85  2351.40
                             2373.36  4344.93  4375.39  4419.89  4457.99
                             4532.78  4545.01  4608.48  4630.93  4653.11
                             4655.59

 Zero-point correction=                           0.185009 (Hartree/Particle)
 Thermal correction to Energy=                    0.198256
 Thermal correction to Enthalpy=                  0.199200
 Thermal correction to Gibbs Free Energy=         0.142913
 Sum of electronic and zero-point Energies=           -680.038875
 Sum of electronic and thermal Energies=              -680.025627
 Sum of electronic and thermal Enthalpies=            -680.024683
 Sum of electronic and thermal Free Energies=         -680.080971

                     E (Thermal)             CV                S
                      KCal/Mol        Cal/Mol-Kelvin    Cal/Mol-Kelvin
 Total                  124.408             47.607            118.467
 Electronic               0.000              0.000              0.000
 Translational            0.889              2.981             41.695
 Rotational               0.889              2.981             31.961
 Vibrational            122.630             41.646             44.811
 Vibration     1          0.593              1.986              6.931
 Vibration     2          0.596              1.976              4.698
 Vibration     3          0.597              1.971              4.298
 Vibration     4          0.598              1.968              4.119
 Vibration     5          0.602              1.955              3.621
 Vibration     6          0.614              1.917              2.854
 Vibration     7          0.629              1.868              2.342
 Vibration     8          0.648              1.808              1.945
 Vibration     9          0.651              1.800              1.903
 Vibration    10          0.660              1.771              1.766
 Vibration    11          0.721              1.593              1.206
 Vibration    12          0.728              1.574              1.163
 Vibration    13          0.762              1.480              0.979
 Vibration    14          0.766              1.470              0.963
 Vibration    15          0.788              1.413              0.871
 Vibration    16          0.866              1.226              0.631
 Vibration    17          0.890              1.173              0.577
 Vibration    18          0.891              1.171              0.575
 Vibration    19          0.944              1.060              0.473

 Optimization completed.
    -- Stationary point found.
 Normal termination of Gaussian 09 at Thu Aug 26 22:06:32 2021.

 -----------------------------------------------------------------
 #P Geom=AllCheck Guess=TCheck SCRF=Check CCSD(T,E4T,FrzG4)/GTBas1
 -----------------------------------------------------------------

 Structure from the checkpoint file:  "/public/home/users/caep010/.cache/gau_scr/Gau-71738.chk"
 ------
 JOLNED
 ------
 Charge =  0 Multiplicity = 1

 SCF Done:  E(RHF) =  -676.090875086     A.U. after   16 cycles
 E2 =    -0.2054311633D+01 EUMP2 =    -0.67814518671913D+03
 CCSD(T)
 CCSD(T)= -0.67828422730D+03
 P4SDQ=-678.1941134\CCSD=-678.1909105\CCSD(T)=-678.2842273\RMSD=5.019e-
 Normal termination of Gaussian 09 at Fri Aug 27 00:31:46 2021.

 ---------------------------------------------------------
 #P Geom=AllCheck Guess=TCheck SCRF=Check MP4=FrzG4/GTBas2
 ---------------------------------------------------------

 Structure from the checkpoint file:  "/public/home/users/caep010/.cache/gau_scr/Gau-71738.chk"
 ------
 JOLNED
 ------
 Charge =  0 Multiplicity = 1

 SCF Done:  E(RHF) =  -676.109580998     A.U. after   16 cycles
 E2 =    -0.2080202571D+01 EUMP2 =    -0.67818978356888D+03
 Normal termination of Gaussian 09 at Fri Aug 27 01:37:07 2021.

 ---------------------------------------------------------
 #P Geom=AllCheck Guess=TCheck SCRF=Check MP4=FrzG4/GTBas3
 ---------------------------------------------------------

 Structure from the checkpoint file:  "/public/home/users/caep010/.cache/gau_scr/Gau-71738.chk"
 ------
 JOLNED
 ------
 Charge =  0 Multiplicity = 1

 SCF Done:  E(RHF) =  -676.158799081     A.U. after   13 cycles
 E2 =    -0.2454193786D+01 EUMP2 =    -0.67861299286699D+03
 Normal termination of Gaussian 09 at Fri Aug 27 12:32:58 2021.

 -----------------------------------------------------------
 #P Geom=AllCheck Guess=TCheck SCRF=Check MP2=Full/GTLargeXP
 -----------------------------------------------------------

 Structure from the checkpoint file:  "/public/home/users/caep010/.cache/gau_scr/Gau-71738.chk"
 ------
 JOLNED
 ------
 Charge =  0 Multiplicity = 1

 SCF Done:  E(RHF) =  -676.319375480     A.U. after   14 cycles
 E2 =    -0.3214255145D+01 EUMP2 =    -0.67953363062531D+03
 Normal termination of Gaussian 09 at Fri Aug 27 12:51:16 2021.
 SCF Done:  E(RHF) =  -676.373069802     A.U. after   10 cycles
 Normal termination of Gaussian 09 at Fri Aug 27 12:59:49 2021.

                         Standard orientation:
 ---------------------------------------------------------------------
 Center     Atomic      Atomic             Coordinates (Angstroms)
 Number     Number       Type             X           Y           Z
 ---------------------------------------------------------------------
      1          8           0       -4.533958    0.822735    0.000224
      2          7           0       -3.835986   -0.186099    0.000085
      3          8           0       -4.273040   -1.332454    0.000013
      4          6           0       -2.382159   -0.010021   -0.000002
      5          6           0       -1.559868   -1.136184   -0.000166
      6          1           0       -2.013798   -2.118141   -0.000259
      7          6           0       -0.186010   -0.972331   -0.000241
      8          6           0        0.374774    0.318188   -0.000144
      9          7           0        1.751679    0.608512   -0.000187
     10          7           0        2.490870   -0.425531   -0.000129
     11          7           0        3.781172   -0.165191   -0.000217
     12          6           0        4.677860   -1.302006    0.000432
     13          1           0        5.319366   -1.297506   -0.888825
     14          1           0        5.318196   -1.297516    0.890558
     15          6           0       -1.853421    1.277127    0.000078
     16          1           0       -2.524282    2.125379    0.000183
     17          6           0       -0.476814    1.432788    0.000006
     18          1           0       -0.028053    2.419150    0.000068
     19          6           0        4.287885    1.197434   -0.000009
     20          1           0        3.930281    1.738394   -0.881911
     21          1           0        3.930904    1.737885    0.882477
     22          1           0        5.377679    1.158689   -0.000449
     23          1           0        0.468307   -1.834032   -0.000375
     24          1           0        4.069760   -2.206371    0.000043
 ---------------------------------------------------------------------

 SCF Done:  E(RHF) =  -676.383317963     A.U. after    7 cycles

 The electronic state is 1-A.
 Alpha  occ. eigenvalues --  -20.58667 -20.58659 -15.84066 -15.69179 -15.63890
 Alpha  occ. eigenvalues --  -15.60088 -11.29445 -11.29237 -11.28583 -11.27935
 Alpha  occ. eigenvalues --  -11.26460 -11.26436 -11.24753 -11.24638  -1.59070
 Alpha  occ. eigenvalues --   -1.43425  -1.38429  -1.25564  -1.18224  -1.08930
 Alpha  occ. eigenvalues --   -1.04199  -1.01629  -1.00321  -0.92977  -0.86450
 Alpha  occ. eigenvalues --   -0.83019  -0.78566  -0.76869  -0.73300  -0.72107
 Alpha  occ. eigenvalues --   -0.70704  -0.70196  -0.68678  -0.64797  -0.63573
 Alpha  occ. eigenvalues --   -0.61972  -0.61120  -0.58955  -0.58279  -0.57056
 Alpha  occ. eigenvalues --   -0.56425  -0.56277  -0.51881  -0.51672  -0.48539
 Alpha  occ. eigenvalues --   -0.48261  -0.44465  -0.42472  -0.41274  -0.36080
 Alpha  occ. eigenvalues --   -0.31715
 Alpha virt. eigenvalues --    0.02322   0.03051   0.03321   0.03976   0.04422
 Alpha virt. eigenvalues --    0.04771   0.05444   0.06262   0.06384   0.06858
 Alpha virt. eigenvalues --    0.07434   0.07551   0.08659   0.08760   0.09156

 Mulliken charges:
               1
     1  O   -0.443324
     2  N    0.516145
     3  O   -0.447136
     4  C    0.111511
     5  C   -0.227489
     6  H    0.260330
     7  C   -0.224884
     8  C    0.255254
     9  N   -0.431034
    10  N    0.070208
    11  N    0.100098
    12  C   -0.511382
    13  H    0.185089
    14  H    0.185076
    15  C   -0.191372
    16  H    0.263010
    17  C   -0.240108
    18  H    0.228659
    19  C   -0.503524
    20  H    0.201756
    21  H    0.201687
    22  H    0.201534
    23  H    0.226092
    24  H    0.213806
 Sum of Mulliken charges =  -0.00000

 Dipole moment (field-independent basis, Debye):
    X=              9.1207    Y=              0.0292    Z=              0.0004  Tot=              9.1207
 Quadrupole moment (field-independent basis, Debye-Ang):
   XX=            -88.3233   YY=            -77.5474   ZZ=            -83.4752
   XY=             -4.1756   XZ=              0.0032   YZ=              0.0000

 Normal termination of Gaussian 09 at Fri Aug 27 13:50:33 2021.
