 Gaussian 09, Revision E.01,
 Gaussian 09:  ES64L-G09RevE.01 30-Nov-2015

 ----------------
 #P G4 OPT=calcfc
 ----------------

 ------
 JIZJIL
 ------
 Symbolic Z-matrix:
 Charge =  0 Multiplicity = 1

 SCF Done:  E(RB3LYP) =  -509.103762068     A.U. after   15 cycles
 SCF Done:  E(RB3LYP) =  -509.255982656     A.U. after   12 cycles
 SCF Done:  E(RB3LYP) =  -509.375111613     A.U. after   13 cycles
 SCF Done:  E(RB3LYP) =  -509.385633671     A.U. after   12 cycles
 SCF Done:  E(RB3LYP) =  -509.386006537     A.U. after   11 cycles
 SCF Done:  E(RB3LYP) =  -509.386048551     A.U. after    9 cycles
 SCF Done:  E(RB3LYP) =  -509.386056720     A.U. after    8 cycles
 SCF Done:  E(RB3LYP) =  -509.386059672     A.U. after    7 cycles
 Optimization completed.
    -- Stationary point found.
 Normal termination of Gaussian 09 at Thu Aug 26 12:46:42 2021.

 ----------------------------------------------------------
 #P Geom=AllCheck Guess=TCheck SCRF=Check B3LYP/GTBas3 Freq
 ----------------------------------------------------------

 Structure from the checkpoint file:  "/public/home/users/caep010/.cache/gau_scr/Gau-203942.chk"
 ------
 JIZJIL
 ------
 Charge =  0 Multiplicity = 1

 SCF Done:  E(RB3LYP) =  -509.386059672     A.U. after    1 cycles

  Exact polarizability: 113.468   0.253  90.031  -0.000   0.000  45.203
 Approx polarizability: 178.611   6.043 166.985  -0.000   0.001  71.922

                      1                      2                      3
                      A                      A                      A
 Frequencies --     65.6176               114.8187               145.5320
 Red. masses --      6.1043                 3.8484                 1.0688
 Frc consts  --      0.0155                 0.0299                 0.0133
 IR Inten    --      1.3250                 0.8414                 0.0149

                      4                      5                      6
                      A                      A                      A
 Frequencies --    153.0043               214.6187               229.7988
 Red. masses --      1.0517                 5.8538                 4.3066
 Frc consts  --      0.0145                 0.1589                 0.1340
 IR Inten    --      0.0696                 4.0520                 0.0659

                      7                      8                      9
                      A                      A                      A
 Frequencies --    297.0397               320.5824               385.1648
 Red. masses --      4.1018                 2.6456                 4.8766
 Frc consts  --      0.2132                 0.1602                 0.4262
 IR Inten    --      7.3265                 2.8262                 1.9618

                     10                     11                     12
                      A                      A                      A
 Frequencies --    425.1117               570.0881               613.4244
 Red. masses --      7.5258                 4.3837                 4.2130
 Frc consts  --      0.8013                 0.8394                 0.9340
 IR Inten    --      0.1570                 4.3513                 0.3300

                     13                     14                     15
                      A                      A                      A
 Frequencies --    669.0703               693.9319               758.6827
 Red. masses --      5.1332                 4.5859                 4.5174
 Frc consts  --      1.3539                 1.3011                 1.5320
 IR Inten    --      2.6623                 6.2354                 0.3797

                     16                     17                     18
                      A                      A                      A
 Frequencies --    774.3570               839.9800               900.7557
 Red. masses --      8.7756                12.3701                 1.4542
 Frc consts  --      3.1003                 5.1423                 0.6952
 IR Inten    --     12.6292                34.2748                 6.0211

                     19                     20                     21
                      A                      A                      A
 Frequencies --    964.0417              1003.1043              1060.5507
 Red. masses --      3.1662                 1.5143                 1.5398
 Frc consts  --      1.7337                 0.8977                 1.0204
 IR Inten    --      6.0317                 6.6532                 2.1495

                     22                     23                     24
                      A                      A                      A
 Frequencies --   1150.1421              1153.6166              1184.0316
 Red. masses --      2.2154                 1.3104                 1.5975
 Frc consts  --      1.7266                 1.0275                 1.3195
 IR Inten    --     11.1990                 0.0808                18.7363

                     25                     26                     27
                      A                      A                      A
 Frequencies --   1226.4188              1306.5517              1366.4762
 Red. masses --      5.0587                 5.5606                 4.2003
 Frc consts  --      4.4830                 5.5927                 4.6210
 IR Inten    --     73.7313               103.7885                34.2604

                     28                     29                     30
                      A                      A                      A
 Frequencies --   1398.9063              1414.7457              1450.1034
 Red. masses --      1.7355                 2.9014                 1.9739
 Frc consts  --      2.0010                 3.4215                 2.4455
 IR Inten    --    105.7054               111.3352               109.7411

                     31                     32                     33
                      A                      A                      A
 Frequencies --   1470.4287              1473.4118              1489.6796
 Red. masses --      1.1928                 1.0407                 1.5669
 Frc consts  --      1.5195                 1.3311                 2.0487
 IR Inten    --     32.4852                14.3957                 7.8521

                     34                     35                     36
                      A                      A                      A
 Frequencies --   1490.1110              1514.3798              1521.8221
 Red. masses --      1.0421                 3.1074                 1.8930
 Frc consts  --      1.3633                 4.1987                 2.5831
 IR Inten    --      0.5351               149.0128                51.5956

                     37                     38                     39
                      A                      A                      A
 Frequencies --   1555.0707              1606.7143              3042.3831
 Red. masses --      4.3121                11.6205                 1.0392
 Frc consts  --      6.1438                17.6747                 5.6671
 IR Inten    --     12.9729               200.7496                12.8701

                     40                     41                     42
                      A                      A                      A
 Frequencies --   3077.8945              3096.9490              3152.9751
 Red. masses --      1.0319                 1.1002                 1.1046
 Frc consts  --      5.7594                 6.2170                 6.4697
 IR Inten    --     16.1766                 9.1682                 3.8304

                     43                     44                     45
                      A                      A                      A
 Frequencies --   3155.7760              3169.7636              3279.2023
 Red. masses --      1.0981                 1.1046                 1.0978
 Frc consts  --      6.4430                 6.5392                 6.9555
 IR Inten    --      1.8695                 6.8564                 0.9271

 - Thermochemistry -
 -------------------
 Temperature   298.150 Kelvin.  Pressure   1.00000 Atm.
 Atom     1 has atomic number  6 and mass  12.00000

 Molecular mass:   141.05383 amu.
 Principal axes and moments of inertia in atomic units:
                           1         2         3
     Eigenvalues --   660.047861662.432352299.99067
           X            0.99956  -0.02977  -0.00000
           Y            0.02977   0.99956  -0.00000
           Z            0.00000   0.00000   1.00000
 This molecule is an asymmetric top.
 Rotational symmetry number  1.
 Warning -- assumption of classical behavior for rotation
           may cause significant error
 Rotational temperatures (Kelvin)      0.13122     0.05210     0.03766
 Rotational constants (GHZ):           2.73426     1.08560     0.78467
 Zero-point vibrational energy     340617.7 (Joules/Mol)
                                   81.40958 (Kcal/Mol)
 Warning -- explicit consideration of  12 degrees of freedom as
           vibrations may cause significant error
 Vibrational temperatures:     94.41   165.20   209.39   220.14   308.79
          (Kelvin)            330.63   427.37   461.25   554.17   611.64
                              820.23   882.58   962.64   998.41  1091.57
                             1114.13  1208.54  1295.98  1387.04  1443.24
                             1525.89  1654.80  1659.79  1703.56  1764.54
                             1879.83  1966.05  2012.71  2035.50  2086.37
                             2115.62  2119.91  2143.31  2143.93  2178.85
                             2189.56  2237.40  2311.70  4377.31  4428.40
                             4455.81  4536.42  4540.45  4560.58  4718.03

 Zero-point correction=                           0.129734 (Hartree/Particle)
 Thermal correction to Energy=                    0.138976
 Thermal correction to Enthalpy=                  0.139920
 Thermal correction to Gibbs Free Energy=         0.095055
 Sum of electronic and zero-point Energies=           -509.256325
 Sum of electronic and thermal Energies=              -509.247084
 Sum of electronic and thermal Enthalpies=            -509.246139
 Sum of electronic and thermal Free Energies=         -509.291005

                     E (Thermal)             CV                S
                      KCal/Mol        Cal/Mol-Kelvin    Cal/Mol-Kelvin
 Total                   87.209             32.975             94.427
 Electronic               0.000              0.000              0.000
 Translational            0.889              2.981             40.743
 Rotational               0.889              2.981             29.313
 Vibrational             85.431             27.014             24.371
 Vibration     1          0.597              1.971              4.281
 Vibration     2          0.608              1.937              3.186
 Vibration     3          0.617              1.908              2.730
 Vibration     4          0.619              1.899              2.635
 Vibration     5          0.645              1.819              2.004
 Vibration     6          0.652              1.795              1.881
 Vibration     7          0.691              1.679              1.434
 Vibration     8          0.706              1.634              1.307
 Vibration     9          0.754              1.502              1.019
 Vibration    10          0.787              1.416              0.875
 Vibration    11          0.926              1.096              0.504
 Vibration    12          0.973              1.003              0.427

 Optimization completed.
    -- Stationary point found.
 Normal termination of Gaussian 09 at Thu Aug 26 12:48:15 2021.

 -----------------------------------------------------------------
 #P Geom=AllCheck Guess=TCheck SCRF=Check CCSD(T,E4T,FrzG4)/GTBas1
 -----------------------------------------------------------------

 Structure from the checkpoint file:  "/public/home/users/caep010/.cache/gau_scr/Gau-203942.chk"
 ------
 JIZJIL
 ------
 Charge =  0 Multiplicity = 1

 SCF Done:  E(RHF) =  -506.351328359     A.U. after   15 cycles
 E2 =    -0.1511089145D+01 EUMP2 =    -0.50786241750344D+03
 CCSD(T)
 CCSD(T)= -0.50795471578D+03
 =-507.8890959\CCSD(T)=-507.9547158\RMSD=6.350e-09\PG=C01 [X(C5H7N3O2)]
 Normal termination of Gaussian 09 at Thu Aug 26 13:08:09 2021.

 ---------------------------------------------------------
 #P Geom=AllCheck Guess=TCheck SCRF=Check MP4=FrzG4/GTBas2
 ---------------------------------------------------------

 Structure from the checkpoint file:  "/public/home/users/caep010/.cache/gau_scr/Gau-203942.chk"
 ------
 JIZJIL
 ------
 Charge =  0 Multiplicity = 1

 SCF Done:  E(RHF) =  -506.364538542     A.U. after   14 cycles
 E2 =    -0.1530281703D+01 EUMP2 =    -0.50789482024560D+03
 Normal termination of Gaussian 09 at Thu Aug 26 13:17:10 2021.

 ---------------------------------------------------------
 #P Geom=AllCheck Guess=TCheck SCRF=Check MP4=FrzG4/GTBas3
 ---------------------------------------------------------

 Structure from the checkpoint file:  "/public/home/users/caep010/.cache/gau_scr/Gau-203942.chk"
 ------
 JIZJIL
 ------
 Charge =  0 Multiplicity = 1

 SCF Done:  E(RHF) =  -506.404194294     A.U. after   12 cycles
 E2 =    -0.1809511050D+01 EUMP2 =    -0.50821370534420D+03
 Normal termination of Gaussian 09 at Thu Aug 26 14:06:01 2021.

 -----------------------------------------------------------
 #P Geom=AllCheck Guess=TCheck SCRF=Check MP2=Full/GTLargeXP
 -----------------------------------------------------------

 Structure from the checkpoint file:  "/public/home/users/caep010/.cache/gau_scr/Gau-203942.chk"
 ------
 JIZJIL
 ------
 Charge =  0 Multiplicity = 1

 SCF Done:  E(RHF) =  -506.528170858     A.U. after   14 cycles
 E2 =    -0.2361014067D+01 EUMP2 =    -0.50888918492519D+03
 Normal termination of Gaussian 09 at Thu Aug 26 14:16:33 2021.
 SCF Done:  E(RHF) =  -506.567546723     A.U. after   10 cycles
 Normal termination of Gaussian 09 at Thu Aug 26 14:20:21 2021.

                         Standard orientation:
 ---------------------------------------------------------------------
 Center     Atomic      Atomic             Coordinates (Angstroms)
 Number     Number       Type             X           Y           Z
 ---------------------------------------------------------------------
      1          6           0       -0.543337    1.954570   -0.000023
      2          7           0       -0.547012    0.495413   -0.000005
      3          6           0       -1.646773   -0.310273    0.000001
      4          7           0       -1.323272   -1.600642   -0.000000
      5          6           0        0.031559   -1.646678   -0.000005
      6          6           0        0.539088   -0.367732   -0.000006
      7          1           0        0.591625   -2.567228   -0.000003
      8          6           0       -3.051370    0.191539    0.000014
      9          7           0        1.898429    0.040884    0.000004
     10          8           0        2.743414   -0.849183   -0.000010
     11          1           0       -3.713469   -0.674519   -0.000109
     12          8           0        2.147948    1.249486    0.000030
     13          1           0       -1.577746    2.296251   -0.000208
     14          1           0       -0.029239    2.335054    0.882995
     15          1           0       -0.028945    2.335018   -0.882884
     16          1           0       -3.272548    0.797540   -0.884571
     17          1           0       -3.272594    0.797312    0.884747
 ---------------------------------------------------------------------

 SCF Done:  E(RHF) =  -506.575383043     A.U. after    7 cycles

 The electronic state is 1-A.
 Alpha  occ. eigenvalues --  -20.59665 -20.59590 -15.85861 -15.65448 -15.56878
 Alpha  occ. eigenvalues --  -11.33988 -11.32122 -11.29367 -11.29241 -11.26075
 Alpha  occ. eigenvalues --   -1.60251  -1.39553  -1.37993  -1.21737  -1.11818
 Alpha  occ. eigenvalues --   -1.03498  -0.98957  -0.92975  -0.82834  -0.79824
 Alpha  occ. eigenvalues --   -0.76705  -0.73008  -0.71944  -0.69151  -0.66991
 Alpha  occ. eigenvalues --   -0.63115  -0.60659  -0.59427  -0.59213  -0.57201
 Alpha  occ. eigenvalues --   -0.56241  -0.50426  -0.49533  -0.46179  -0.45687
 Alpha  occ. eigenvalues --   -0.41940  -0.35063
 Alpha virt. eigenvalues --    0.02221   0.03581   0.04012   0.04588   0.04681
 Alpha virt. eigenvalues --    0.06042   0.06245   0.06692   0.06827   0.07212
 Alpha virt. eigenvalues --    0.08686   0.09019   0.09644   0.09665   0.09977

 Mulliken charges:
               1
     1  C   -0.551760
     2  N    0.058368
     3  C    0.365777
     4  N   -0.496105
     5  C   -0.019446
     6  C    0.104702
     7  H    0.270509
     8  C   -0.626856
     9  N    0.498136
    10  O   -0.437080
    11  H    0.234659
    12  O   -0.452413
    13  H    0.206839
    14  H    0.220186
    15  H    0.220204
    16  H    0.202135
    17  H    0.202143
 Sum of Mulliken charges =  -0.00000

 Dipole moment (field-independent basis, Debye):
    X=             -4.8116    Y=              2.4609    Z=             -0.0000  Tot=              5.4044
 Quadrupole moment (field-independent basis, Debye-Ang):
   XX=            -65.9963   YY=            -58.4198   ZZ=            -57.6418
   XY=             -7.2917   XZ=             -0.0001   YZ=             -0.0002

 Normal termination of Gaussian 09 at Thu Aug 26 14:43:27 2021.
