 Gaussian 09, Revision E.01,
 Gaussian 09:  ES64L-G09RevE.01 30-Nov-2015

 ----------------
 #P G4 OPT=calcfc
 ----------------

 ------
 JUMFAA
 ------
 Symbolic Z-matrix:
 Charge =  0 Multiplicity = 1

 SCF Done:  E(RB3LYP) =  -734.833895916     A.U. after   19 cycles
 SCF Done:  E(RB3LYP) =  -734.911144511     A.U. after   13 cycles
 SCF Done:  E(RB3LYP) =  -734.940738448     A.U. after   15 cycles
 SCF Done:  E(RB3LYP) =  -734.942874026     A.U. after   14 cycles
 SCF Done:  E(RB3LYP) =  -734.943029550     A.U. after   14 cycles
 SCF Done:  E(RB3LYP) =  -734.943063182     A.U. after   13 cycles
 SCF Done:  E(RB3LYP) =  -734.943071419     A.U. after   13 cycles
 SCF Done:  E(RB3LYP) =  -734.943074202     A.U. after   10 cycles
 SCF Done:  E(RB3LYP) =  -734.943075017     A.U. after   10 cycles
 SCF Done:  E(RB3LYP) =  -734.943075260     A.U. after    9 cycles
 SCF Done:  E(RB3LYP) =  -734.943075290     A.U. after    8 cycles
 Optimization completed.
    -- Stationary point found.
 Normal termination of Gaussian 09 at Thu Aug 26 05:28:04 2021.

 ----------------------------------------------------------
 #P Geom=AllCheck Guess=TCheck SCRF=Check B3LYP/GTBas3 Freq
 ----------------------------------------------------------

 Structure from the checkpoint file:  "/public/home/users/caep010/.cache/gau_scr/Gau-16968.chk"
 ------
 JUMFAA
 ------
 Charge =  0 Multiplicity = 1

 SCF Done:  E(RB3LYP) =  -734.943075290     A.U. after    1 cycles

  Exact polarizability: 109.881   2.250  76.946   0.237  -0.632  85.318
 Approx polarizability: 158.818  14.836 126.498   7.855  -2.648 160.252

                      1                      2                      3
                      A                      A                      A
 Frequencies --     20.8946                27.9967                74.2046
 Red. masses --     13.8914                 8.0474                 1.3891
 Frc consts  --      0.0036                 0.0037                 0.0045
 IR Inten    --      0.3018                 1.1138                 1.5321

                      4                      5                      6
                      A                      A                      A
 Frequencies --     85.1289                92.4381               122.9427
 Red. masses --      4.1093                 4.4179                 3.6471
 Frc consts  --      0.0175                 0.0222                 0.0325
 IR Inten    --      0.0559                 1.4297                 5.7193

                      7                      8                      9
                      A                      A                      A
 Frequencies --    134.1084               186.6278               252.7508
 Red. masses --      5.0795                11.1398                 3.6740
 Frc consts  --      0.0538                 0.2286                 0.1383
 IR Inten    --      9.3987                 5.0683                 2.2589

                     10                     11                     12
                      A                      A                      A
 Frequencies --    280.6911               316.3759               330.6383
 Red. masses --      3.3638                 7.4436                 2.7919
 Frc consts  --      0.1561                 0.4390                 0.1798
 IR Inten    --      3.3242                 0.7560                 3.1684

                     13                     14                     15
                      A                      A                      A
 Frequencies --    408.6014               455.2446               517.0894
 Red. masses --     10.3873                 4.4514                 6.6166
 Frc consts  --      1.0218                 0.5436                 1.0424
 IR Inten    --      4.6735                 9.6266                 8.1093

                     16                     17                     18
                      A                      A                      A
 Frequencies --    576.2605               590.1421               636.8443
 Red. masses --      4.8594                 2.6912                 4.7434
 Frc consts  --      0.9508                 0.5522                 1.1335
 IR Inten    --     10.5263                 4.5516                 8.6127

                     19                     20                     21
                      A                      A                      A
 Frequencies --    688.8787               732.1567               742.1848
 Red. masses --      3.4986                 7.0878                 4.7177
 Frc consts  --      0.9782                 2.2386                 1.5311
 IR Inten    --     11.1690                 1.3484                 2.4881

                     22                     23                     24
                      A                      A                      A
 Frequencies --    854.5743               874.1514               902.7349
 Red. masses --     11.8398                 5.0962                 4.8971
 Frc consts  --      5.0944                 2.2944                 2.3513
 IR Inten    --     32.9864                43.8856                 1.5927

                     25                     26                     27
                      A                      A                      A
 Frequencies --    954.7117               968.6056              1052.3176
 Red. masses --      1.4657                 2.0169                 1.7812
 Frc consts  --      0.7871                 1.1149                 1.1621
 IR Inten    --      3.1113                18.7810                 4.8189

                     28                     29                     30
                      A                      A                      A
 Frequencies --   1068.0517              1110.2913              1128.4265
 Red. masses --      2.4764                 6.9355                 1.7260
 Frc consts  --      1.6644                 5.0374                 1.2949
 IR Inten    --      1.7194                 6.4688                 2.4076

                     31                     32                     33
                      A                      A                      A
 Frequencies --   1131.8210              1158.7510              1219.6852
 Red. masses --      1.1923                 3.4935                 1.7023
 Frc consts  --      0.8999                 2.7637                 1.4921
 IR Inten    --      1.5393                 8.6285                 7.5015

                     34                     35                     36
                      A                      A                      A
 Frequencies --   1224.5717              1293.9803              1328.4098
 Red. masses --      5.2847                 1.4427                 1.6303
 Frc consts  --      4.6691                 1.4232                 1.6951
 IR Inten    --     26.3017                 0.2827                13.7698

                     37                     38                     39
                      A                      A                      A
 Frequencies --   1383.4471              1384.4283              1423.8561
 Red. masses --      2.1951                 2.7430                 6.6557
 Frc consts  --      2.4754                 3.0976                 7.9501
 IR Inten    --     83.2926                78.8743               307.2834

                     40                     41                     42
                      A                      A                      A
 Frequencies --   1441.3833              1471.5948              1482.3078
 Red. masses --      4.7380                 1.1727                 1.0540
 Frc consts  --      5.7997                 1.4963                 1.3644
 IR Inten    --    155.3079                20.6734                13.4187

                     43                     44                     45
                      A                      A                      A
 Frequencies --   1488.3041              1507.5941              1676.9713
 Red. masses --      1.0734                 1.1306                14.2366
 Frc consts  --      1.4009                 1.5141                23.5888
 IR Inten    --      8.1318                17.8339               214.7989

                     46                     47                     48
                      A                      A                      A
 Frequencies --   1679.0955              1780.6990              3042.3595
 Red. masses --     13.9044                10.7784                 1.0391
 Frc consts  --     23.0968                20.1367                 5.6664
 IR Inten    --    240.4028               291.1102                 3.2203

                     49                     50                     51
                      A                      A                      A
 Frequencies --   3058.0881              3075.1344              3105.0314
 Red. masses --      1.0549                 1.0566                 1.0987
 Frc consts  --      5.8123                 5.8871                 6.2411
 IR Inten    --     15.6474                 8.2389                 7.5814

                     52                     53                     54
                      A                      A                      A
 Frequencies --   3113.9424              3130.6317              3165.8970
 Red. masses --      1.1108                 1.1108                 1.1001
 Frc consts  --      6.3462                 6.4144                 6.4966
 IR Inten    --      3.6598                 2.1053                 4.1495

 - Thermochemistry -
 -------------------
 Temperature   298.150 Kelvin.  Pressure   1.00000 Atm.
 Atom     1 has atomic number  7 and mass  14.00307

 Molecular mass:   189.03857 amu.
 Principal axes and moments of inertia in atomic units:
                           1         2         3
     Eigenvalues --  1294.810933351.413853743.65300
           X            0.99974  -0.00194  -0.02251
           Y            0.00201   0.99999   0.00276
           Z            0.02250  -0.00280   0.99974
 This molecule is an asymmetric top.
 Rotational symmetry number  1.
 Warning -- assumption of classical behavior for rotation
           may cause significant error
 Rotational temperatures (Kelvin)      0.06689     0.02584     0.02314
 Rotational constants (GHZ):           1.39383     0.53850     0.48208
 Zero-point vibrational energy     370567.5 (Joules/Mol)
                                   88.56776 (Kcal/Mol)
 Warning -- explicit consideration of  17 degrees of freedom as
           vibrations may cause significant error
 Vibrational temperatures:     30.06    40.28   106.76   122.48   133.00
          (Kelvin)            176.89   192.95   268.52   363.65   403.85
                              455.19   475.71   587.89   654.99   743.98
                              829.11   849.08   916.28   991.14  1053.41
                             1067.84  1229.54  1257.71  1298.83  1373.62
                             1393.61  1514.05  1536.69  1597.46  1623.55
                             1628.44  1667.18  1754.85  1761.88  1861.75
                             1911.28  1990.47  1991.88  2048.61  2073.83
                             2117.29  2132.71  2141.33  2169.09  2412.78
                             2415.84  2562.03  4377.27  4399.90  4424.43
                             4467.44  4480.26  4504.28  4555.01

 Zero-point correction=                           0.141142 (Hartree/Particle)
 Thermal correction to Energy=                    0.153790
 Thermal correction to Enthalpy=                  0.154734
 Thermal correction to Gibbs Free Energy=         0.099348
 Sum of electronic and zero-point Energies=           -734.801934
 Sum of electronic and thermal Energies=              -734.789285
 Sum of electronic and thermal Enthalpies=            -734.788341
 Sum of electronic and thermal Free Energies=         -734.843727

                     E (Thermal)             CV                S
                      KCal/Mol        Cal/Mol-Kelvin    Cal/Mol-Kelvin
 Total                   96.505             43.305            116.570
 Electronic               0.000              0.000              0.000
 Translational            0.889              2.981             41.616
 Rotational               0.889              2.981             31.164
 Vibrational             94.727             37.343             43.790
 Vibration     1          0.593              1.986              6.547
 Vibration     2          0.593              1.984              5.967
 Vibration     3          0.599              1.966              4.039
 Vibration     4          0.601              1.959              3.769
 Vibration     5          0.602              1.955              3.608
 Vibration     6          0.610              1.930              3.054
 Vibration     7          0.613              1.919              2.886
 Vibration     8          0.632              1.858              2.261
 Vibration     9          0.664              1.758              1.711
 Vibration    10          0.680              1.709              1.529
 Vibration    11          0.703              1.642              1.329
 Vibration    12          0.713              1.614              1.257
 Vibration    13          0.773              1.452              0.932
 Vibration    14          0.814              1.349              0.780
 Vibration    15          0.872              1.212              0.617
 Vibration    16          0.933              1.083              0.492
 Vibration    17          0.947              1.053              0.467

 Optimization completed.
    -- Stationary point found.
 Normal termination of Gaussian 09 at Thu Aug 26 05:31:11 2021.

 -----------------------------------------------------------------
 #P Geom=AllCheck Guess=TCheck SCRF=Check CCSD(T,E4T,FrzG4)/GTBas1
 -----------------------------------------------------------------

 Structure from the checkpoint file:  "/public/home/users/caep010/.cache/gau_scr/Gau-16968.chk"
 ------
 JUMFAA
 ------
 Charge =  0 Multiplicity = 1

 SCF Done:  E(RHF) =  -730.783474356     A.U. after   15 cycles
 E2 =    -0.2071036292D+01 EUMP2 =    -0.73285451064794D+03
 CCSD(T)
 CCSD(T)= -0.73296106647D+03
 MP4SDTQ=-732.9868578\MP4SDQ=-732.8851347\CCSD=-732.8746934\CCSD(T)=-73
 Normal termination of Gaussian 09 at Thu Aug 26 07:12:11 2021.

 ---------------------------------------------------------
 #P Geom=AllCheck Guess=TCheck SCRF=Check MP4=FrzG4/GTBas2
 ---------------------------------------------------------

 Structure from the checkpoint file:  "/public/home/users/caep010/.cache/gau_scr/Gau-16968.chk"
 ------
 JUMFAA
 ------
 Charge =  0 Multiplicity = 1

 SCF Done:  E(RHF) =  -730.804646145     A.U. after   15 cycles
 E2 =    -0.2100901589D+01 EUMP2 =    -0.73290554773377D+03
 Normal termination of Gaussian 09 at Thu Aug 26 07:53:43 2021.

 ---------------------------------------------------------
 #P Geom=AllCheck Guess=TCheck SCRF=Check MP4=FrzG4/GTBas3
 ---------------------------------------------------------

 Structure from the checkpoint file:  "/public/home/users/caep010/.cache/gau_scr/Gau-16968.chk"
 ------
 JUMFAA
 ------
 Charge =  0 Multiplicity = 1

 SCF Done:  E(RHF) =  -730.860765015     A.U. after   12 cycles
 E2 =    -0.2488436767D+01 EUMP2 =    -0.73334920178288D+03
 Normal termination of Gaussian 09 at Thu Aug 26 13:47:53 2021.

 -----------------------------------------------------------
 #P Geom=AllCheck Guess=TCheck SCRF=Check MP2=Full/GTLargeXP
 -----------------------------------------------------------

 Structure from the checkpoint file:  "/public/home/users/caep010/.cache/gau_scr/Gau-16968.chk"
 ------
 JUMFAA
 ------
 Charge =  0 Multiplicity = 1

 SCF Done:  E(RHF) =  -731.051356132     A.U. after   13 cycles
 E2 =    -0.3228516944D+01 EUMP2 =    -0.73427987307637D+03
 Normal termination of Gaussian 09 at Thu Aug 26 14:00:39 2021.
 SCF Done:  E(RHF) =  -731.108902425     A.U. after   10 cycles
 Normal termination of Gaussian 09 at Thu Aug 26 14:07:40 2021.

                         Standard orientation:
 ---------------------------------------------------------------------
 Center     Atomic      Atomic             Coordinates (Angstroms)
 Number     Number       Type             X           Y           Z
 ---------------------------------------------------------------------
      1          7           0       -1.579240   -1.219593   -0.038945
      2          8           0       -1.855741   -1.646894   -1.145189
      3          8           0       -1.927113   -1.674034    1.033845
      4          6           0       -0.721552    0.023990    0.003600
      5          6           0        0.406654    0.101333   -1.049701
      6          7           0        1.354624    0.182040    0.063086
      7          1           0        0.468743   -0.799480   -1.666573
      8          6           0        2.699349   -0.042436    0.189612
      9          6           0        3.471830   -0.083780   -1.114812
     10          1           0        3.196737   -0.968782   -1.699610
     11          1           0        0.359540    0.990974   -1.682890
     12          8           0        3.196999   -0.182148    1.289356
     13          1           0        4.535834   -0.129378   -0.885940
     14          6           0        0.350698    0.073508    1.118058
     15          1           0        0.279506    0.944674    1.772752
     16          1           0        0.403645   -0.841094    1.713148
     17          7           0       -1.667304    1.212899   -0.010234
     18          8           0       -1.115885    2.298956   -0.010954
     19          8           0       -2.861726    0.996876   -0.016976
     20          1           0        3.265287    0.797926   -1.729432
 ---------------------------------------------------------------------

 SCF Done:  E(RHF) =  -731.120680547     A.U. after    8 cycles

 The electronic state is 1-A.
 Alpha  occ. eigenvalues --  -20.64901 -20.64332 -20.64212 -20.64171 -20.54422
 Alpha  occ. eigenvalues --  -15.89591 -15.88984 -15.62173 -11.41463 -11.37866
 Alpha  occ. eigenvalues --  -11.34208 -11.33041 -11.26123  -1.66016  -1.64226
 Alpha  occ. eigenvalues --   -1.45097  -1.44580  -1.41378  -1.32724  -1.17518
 Alpha  occ. eigenvalues --   -1.05192  -1.01151  -0.99830  -0.97626  -0.85316
 Alpha  occ. eigenvalues --   -0.83440  -0.79277  -0.77706  -0.77585  -0.75994
 Alpha  occ. eigenvalues --   -0.75123  -0.72282  -0.70668  -0.68198  -0.66391
 Alpha  occ. eigenvalues --   -0.63404  -0.62151  -0.60336  -0.58147  -0.56273
 Alpha  occ. eigenvalues --   -0.54973  -0.53940  -0.53267  -0.53091  -0.51746
 Alpha  occ. eigenvalues --   -0.49974  -0.48344  -0.45162  -0.41914
 Alpha virt. eigenvalues --    0.02044   0.03450   0.03956   0.04037   0.04372
 Alpha virt. eigenvalues --    0.04585   0.05681   0.06132   0.06448   0.06881
 Alpha virt. eigenvalues --    0.06939   0.08506   0.08595   0.08824   0.09428

 Mulliken charges:
               1
     1  N    0.530781
     2  O   -0.411727
     3  O   -0.398840
     4  C    0.407486
     5  C   -0.356536
     6  N   -0.047122
     7  H    0.233010
     8  C    0.558292
     9  C   -0.610810
    10  H    0.197048
    11  H    0.226204
    12  O   -0.623134
    13  H    0.237232
    14  C   -0.345876
    15  H    0.228178
    16  H    0.236997
    17  N    0.531691
    18  O   -0.419497
    19  O   -0.376940
    20  H    0.203564
 Sum of Mulliken charges =  -0.00000

 Dipole moment (field-independent basis, Debye):
    X=              2.5693    Y=              0.1960    Z=             -3.1175  Tot=              4.0446
 Quadrupole moment (field-independent basis, Debye-Ang):
   XX=            -90.4158   YY=            -82.6607   ZZ=            -74.2045
   XY=             -1.2360   XZ=            -12.1381   YZ=              0.4642

 Normal termination of Gaussian 09 at Thu Aug 26 14:54:05 2021.
