 Gaussian 09, Revision E.01,
 Gaussian 09:  ES64L-G09RevE.01 30-Nov-2015

 ----------------
 #P G4 OPT=calcfc
 ----------------

 ------
 JACYOB
 ------
 Symbolic Z-matrix:
 Charge =  0 Multiplicity = 1

 SCF Done:  E(RB3LYP) =  -605.332442071     A.U. after   16 cycles
 SCF Done:  E(RB3LYP) =  -605.447649923     A.U. after   13 cycles
 SCF Done:  E(RB3LYP) =  -605.494928902     A.U. after   14 cycles
 SCF Done:  E(RB3LYP) =  -605.497390940     A.U. after   14 cycles
 SCF Done:  E(RB3LYP) =  -605.497673147     A.U. after   13 cycles
 SCF Done:  E(RB3LYP) =  -605.497837718     A.U. after   12 cycles
 SCF Done:  E(RB3LYP) =  -605.497895888     A.U. after   11 cycles
 SCF Done:  E(RB3LYP) =  -605.497916126     A.U. after   12 cycles
 SCF Done:  E(RB3LYP) =  -605.497921286     A.U. after   10 cycles
 SCF Done:  E(RB3LYP) =  -605.497921558     A.U. after    8 cycles
 SCF Done:  E(RB3LYP) =  -605.497921682     A.U. after    8 cycles
 Optimization completed.
    -- Stationary point found.
 Normal termination of Gaussian 09 at Thu Aug 26 05:15:44 2021.

 ----------------------------------------------------------
 #P Geom=AllCheck Guess=TCheck SCRF=Check B3LYP/GTBas3 Freq
 ----------------------------------------------------------

 Structure from the checkpoint file:  "/public/home/users/caep010/.cache/gau_scr/Gau-11690.chk"
 ------
 JACYOB
 ------
 Charge =  0 Multiplicity = 1

 SCF Done:  E(RB3LYP) =  -605.497921682     A.U. after    1 cycles

  Exact polarizability: 134.765   1.452 114.556   1.119  -0.315  43.020
 Approx polarizability: 219.181   1.865 212.564   4.687   0.143  71.495

                      1                      2                      3
                      A                      A                      A
 Frequencies --     53.1254                57.8690               139.1304
 Red. masses --      7.4308                 9.6969                 5.3347
 Frc consts  --      0.0124                 0.0191                 0.0608
 IR Inten    --      6.3001                 6.3372                 6.5402

                      4                      5                      6
                      A                      A                      A
 Frequencies --    151.3144               190.9749               283.4586
 Red. masses --      6.5936                 4.7282                 5.5658
 Frc consts  --      0.0889                 0.1016                 0.2635
 IR Inten    --      3.5661                 1.2792                 6.4523

                      7                      8                      9
                      A                      A                      A
 Frequencies --    344.9278               365.4593               394.9862
 Red. masses --      7.3275                 1.3098                 5.5116
 Frc consts  --      0.5136                 0.1031                 0.5066
 IR Inten    --      8.4620               155.5062                 0.2822

                     10                     11                     12
                      A                      A                      A
 Frequencies --    427.1597               452.0098               495.1134
 Red. masses --      2.9444                 3.9225                 4.3575
 Frc consts  --      0.3165                 0.4722                 0.6294
 IR Inten    --      7.1537                 4.2698                 3.8233

                     13                     14                     15
                      A                      A                      A
 Frequencies --    555.8724               570.9414               623.8566
 Red. masses --      4.4092                 1.4214                 4.2646
 Frc consts  --      0.8027                 0.2730                 0.9779
 IR Inten    --      4.1565                13.6121                28.8903

                     16                     17                     18
                      A                      A                      A
 Frequencies --    681.2104               693.0810               745.5892
 Red. masses --      5.5684                 3.2941                 2.5182
 Frc consts  --      1.5225                 0.9323                 0.8248
 IR Inten    --      7.8262                 2.9715                61.4400

                     19                     20                     21
                      A                      A                      A
 Frequencies --    790.3199               798.8838               852.5712
 Red. masses --      6.6999                 7.3931                 1.5620
 Frc consts  --      2.4656                 2.7800                 0.6690
 IR Inten    --     14.7861                 1.4638                 5.2510

                     22                     23                     24
                      A                      A                      A
 Frequencies --    902.5179               946.5319               981.2953
 Red. masses --      6.7604                 1.5839                 1.4132
 Frc consts  --      3.2444                 0.8361                 0.8018
 IR Inten    --     23.8851                 5.5137                 1.2073

                     25                     26                     27
                      A                      A                      A
 Frequencies --   1010.5532              1015.7806              1081.7943
 Red. masses --      1.3763                 5.7038                 1.9364
 Frc consts  --      0.8281                 3.4675                 1.3352
 IR Inten    --      1.0542                 0.7178                12.2935

                     28                     29                     30
                      A                      A                      A
 Frequencies --   1107.9762              1112.2614              1161.7896
 Red. masses --      1.5972                 1.5925                 3.5817
 Frc consts  --      1.1553                 1.1608                 2.8483
 IR Inten    --      9.4741                33.4905                10.4647

                     31                     32                     33
                      A                      A                      A
 Frequencies --   1184.0625              1301.3761              1360.4796
 Red. masses --      1.1708                 1.3654                 6.4134
 Frc consts  --      0.9671                 1.3624                 6.9940
 IR Inten    --      2.8447                 9.2660                19.5256

                     34                     35                     36
                      A                      A                      A
 Frequencies --   1370.8970              1395.8363              1456.2554
 Red. masses --      4.3453                12.7240                 3.1233
 Frc consts  --      4.8115                14.6064                 3.9025
 IR Inten    --    224.3788               245.2802                 3.8353

                     37                     38                     39
                      A                      A                      A
 Frequencies --   1507.8683              1611.8261              1619.3696
 Red. masses --      2.5096                 7.1633                 1.4120
 Frc consts  --      3.3619                10.9648                 2.1817
 IR Inten    --      4.4036                40.8361               191.3381

                     40                     41                     42
                      A                      A                      A
 Frequencies --   1625.3806              1665.9825              1784.1394
 Red. masses --      4.5066                 9.0364                 9.2499
 Frc consts  --      7.0148                14.7770                17.3478
 IR Inten    --     15.1784               101.9760               256.9115

                     43                     44                     45
                      A                      A                      A
 Frequencies --   3196.1548              3217.7840              3230.7583
 Red. masses --      1.0882                 1.0926                 1.0899
 Frc consts  --      6.5498                 6.6653                 6.7024
 IR Inten    --      5.3414                 2.6643                 2.2296

                     46                     47                     48
                      A                      A                      A
 Frequencies --   3238.4775              3597.8721              3725.9975
 Red. masses --      1.0926                 1.0457                 1.1025
 Frc consts  --      6.7513                 7.9752                 9.0183
 IR Inten    --      2.1700                46.8198                37.3386

 - Thermochemistry -
 -------------------
 Temperature   298.150 Kelvin.  Pressure   1.00000 Atm.
 Atom     1 has atomic number  6 and mass  12.00000

 Molecular mass:   166.03784 amu.
 Principal axes and moments of inertia in atomic units:
                           1         2         3
     Eigenvalues --   953.445333018.431333949.72403
           X            0.99977   0.02115  -0.00272
           Y           -0.02116   0.99977  -0.00457
           Z            0.00262   0.00463   0.99999
 This molecule is an asymmetric top.
 Rotational symmetry number  1.
 Warning -- assumption of classical behavior for rotation
           may cause significant error
 Rotational temperatures (Kelvin)      0.09084     0.02869     0.02193
 Rotational constants (GHZ):           1.89286     0.59791     0.45693
 Zero-point vibrational energy     341407.5 (Joules/Mol)
                                   81.59834 (Kcal/Mol)
 Warning -- explicit consideration of  14 degrees of freedom as
           vibrations may cause significant error
 Vibrational temperatures:     76.44    83.26   200.18   217.71   274.77
          (Kelvin)            407.83   496.27   525.81   568.30   614.59
                              650.34   712.36   799.78   821.46   897.59
                              980.11   997.19  1072.74  1137.09  1149.41
                             1226.66  1298.52  1361.85  1411.86  1453.96
                             1461.48  1556.46  1594.13  1600.29  1671.55
                             1703.60  1872.39  1957.42  1972.41  2008.29
                             2095.22  2169.48  2319.06  2329.91  2338.56
                             2396.97  2566.98  4598.55  4629.67  4648.33
                             4659.44  5176.53  5360.87

 Zero-point correction=                           0.130035 (Hartree/Particle)
 Thermal correction to Energy=                    0.140080
 Thermal correction to Enthalpy=                  0.141024
 Thermal correction to Gibbs Free Energy=         0.093531
 Sum of electronic and zero-point Energies=           -605.367886
 Sum of electronic and thermal Energies=              -605.357842
 Sum of electronic and thermal Enthalpies=            -605.356898
 Sum of electronic and thermal Free Energies=         -605.404390

                     E (Thermal)             CV                S
                      KCal/Mol        Cal/Mol-Kelvin    Cal/Mol-Kelvin
 Total                   87.901             37.680             99.956
 Electronic               0.000              0.000              0.000
 Translational            0.889              2.981             41.229
 Rotational               0.889              2.981             30.809
 Vibrational             86.124             31.718             27.918
 Vibration     1          0.596              1.976              4.698
 Vibration     2          0.596              1.974              4.529
 Vibration     3          0.615              1.914              2.816
 Vibration     4          0.619              1.901              2.656
 Vibration     5          0.634              1.852              2.218
 Vibration     6          0.682              1.704              1.513
 Vibration     7          0.723              1.586              1.189
 Vibration     8          0.739              1.543              1.099
 Vibration     9          0.762              1.481              0.981
 Vibration    10          0.789              1.411              0.868
 Vibration    11          0.811              1.356              0.790
 Vibration    12          0.851              1.261              0.670
 Vibration    13          0.911              1.127              0.532
 Vibration    14          0.927              1.094              0.502

 Optimization completed.
    -- Stationary point found.
 Normal termination of Gaussian 09 at Thu Aug 26 05:17:56 2021.

 -----------------------------------------------------------------
 #P Geom=AllCheck Guess=TCheck SCRF=Check CCSD(T,E4T,FrzG4)/GTBas1
 -----------------------------------------------------------------

 Structure from the checkpoint file:  "/public/home/users/caep010/.cache/gau_scr/Gau-11690.chk"
 ------
 JACYOB
 ------
 Charge =  0 Multiplicity = 1

 SCF Done:  E(RHF) =  -601.953922046     A.U. after   15 cycles
 E2 =    -0.1759109258D+01 EUMP2 =    -0.60371303130345D+03
 CCSD(T)
 CCSD(T)= -0.60381720200D+03
 03.8339883\MP4SDQ=-603.7436541\CCSD=-603.7389142\CCSD(T)=-603.817202\R
 Normal termination of Gaussian 09 at Thu Aug 26 06:12:16 2021.

 ---------------------------------------------------------
 #P Geom=AllCheck Guess=TCheck SCRF=Check MP4=FrzG4/GTBas2
 ---------------------------------------------------------

 Structure from the checkpoint file:  "/public/home/users/caep010/.cache/gau_scr/Gau-11690.chk"
 ------
 JACYOB
 ------
 Charge =  0 Multiplicity = 1

 SCF Done:  E(RHF) =  -601.972024542     A.U. after   16 cycles
 E2 =    -0.1782340874D+01 EUMP2 =    -0.60375436541597D+03
 Normal termination of Gaussian 09 at Thu Aug 26 06:32:53 2021.

 ---------------------------------------------------------
 #P Geom=AllCheck Guess=TCheck SCRF=Check MP4=FrzG4/GTBas3
 ---------------------------------------------------------

 Structure from the checkpoint file:  "/public/home/users/caep010/.cache/gau_scr/Gau-11690.chk"
 ------
 JACYOB
 ------
 Charge =  0 Multiplicity = 1

 SCF Done:  E(RHF) =  -602.015559115     A.U. after   13 cycles
 E2 =    -0.2101147358D+01 EUMP2 =    -0.60411670647297D+03
 Normal termination of Gaussian 09 at Thu Aug 26 09:26:42 2021.

 -----------------------------------------------------------
 #P Geom=AllCheck Guess=TCheck SCRF=Check MP2=Full/GTLargeXP
 -----------------------------------------------------------

 Structure from the checkpoint file:  "/public/home/users/caep010/.cache/gau_scr/Gau-11690.chk"
 ------
 JACYOB
 ------
 Charge =  0 Multiplicity = 1

 SCF Done:  E(RHF) =  -602.165645960     A.U. after   15 cycles
 E2 =    -0.2757870881D+01 EUMP2 =    -0.60492351684070D+03
 Normal termination of Gaussian 09 at Thu Aug 26 09:43:42 2021.
 SCF Done:  E(RHF) =  -602.213505472     A.U. after   10 cycles
 Normal termination of Gaussian 09 at Thu Aug 26 09:49:04 2021.

                         Standard orientation:
 ---------------------------------------------------------------------
 Center     Atomic      Atomic             Coordinates (Angstroms)
 Number     Number       Type             X           Y           Z
 ---------------------------------------------------------------------
      1          6           0       -2.542371   -0.426637   -0.036428
      2          7           0       -2.601563   -1.770110    0.213319
      3          1           0       -3.526097   -2.164879    0.287293
      4          1           0       -1.859311   -2.246410    0.696156
      5          6           0       -1.173549    0.200195    0.005164
      6          6           0       -1.111883    1.597194    0.059094
      7          1           0       -2.047482    2.143649    0.066013
      8          6           0        0.011384   -0.533608   -0.033653
      9          1           0        0.029932   -1.611624   -0.118969
     10          6           0        0.112369    2.255706    0.096833
     11          6           0        1.299117    1.529484    0.068870
     12          1           0        0.145861    3.338198    0.144706
     13          8           0       -3.531581    0.231535   -0.299658
     14          6           0        1.223726    0.143750    0.000133
     15          7           0        2.472720   -0.639325   -0.042897
     16          8           0        2.374991   -1.858870   -0.098700
     17          8           0        3.528760   -0.022273   -0.016926
     18          1           0        2.268876    2.007471    0.094042
 ---------------------------------------------------------------------

 SCF Done:  E(RHF) =  -602.222750558     A.U. after    8 cycles

 The electronic state is 1-A.
 Alpha  occ. eigenvalues --  -20.61028 -20.60942 -20.53791 -15.86334 -15.60052
 Alpha  occ. eigenvalues --  -11.37740 -11.32183 -11.29381 -11.28977 -11.28253
 Alpha  occ. eigenvalues --  -11.28125 -11.27320  -1.61513  -1.40928  -1.40402
 Alpha  occ. eigenvalues --   -1.23307  -1.21107  -1.10673  -1.07201  -0.97251
 Alpha  occ. eigenvalues --   -0.91134  -0.85538  -0.81753  -0.78723  -0.74140
 Alpha  occ. eigenvalues --   -0.73673  -0.73020  -0.71600  -0.69787  -0.65975
 Alpha  occ. eigenvalues --   -0.64706  -0.62398  -0.60158  -0.56522  -0.55386
 Alpha  occ. eigenvalues --   -0.54151  -0.50729  -0.50585  -0.46591  -0.45474
 Alpha  occ. eigenvalues --   -0.43661  -0.38708  -0.38319
 Alpha virt. eigenvalues --    0.02449   0.03079   0.03318   0.04514   0.04617
 Alpha virt. eigenvalues --    0.05460   0.06050   0.06072   0.07106   0.07467
 Alpha virt. eigenvalues --    0.07746   0.08109   0.08166   0.09365   0.09539

 Mulliken charges:
               1
     1  C    0.475486
     2  N   -0.721537
     3  H    0.362894
     4  H    0.333193
     5  C    0.240088
     6  C   -0.221279
     7  H    0.258868
     8  C   -0.238365
     9  H    0.253152
    10  C   -0.162703
    11  C   -0.202584
    12  H    0.229719
    13  O   -0.614583
    14  C    0.081700
    15  N    0.538478
    16  O   -0.441215
    17  O   -0.434868
    18  H    0.263556
 Sum of Mulliken charges =  -0.00000

 Dipole moment (field-independent basis, Debye):
    X=             -1.3703    Y=              0.6248    Z=              1.5428  Tot=              2.1560
 Quadrupole moment (field-independent basis, Debye-Ang):
   XX=            -91.9071   YY=            -58.9558   ZZ=            -69.8565
   XY=             13.4533   XZ=             -3.9595   YZ=             -1.9459

 Normal termination of Gaussian 09 at Thu Aug 26 10:25:53 2021.
