 Gaussian 09, Revision E.01,
 Gaussian 09:  ES64L-G09RevE.01 30-Nov-2015

 ----------------
 #P G4 OPT=calcfc
 ----------------

 --------
 JABMAD01
 --------
 Symbolic Z-matrix:
 Charge =  0 Multiplicity = 1

 SCF Done:  E(RB3LYP) =  -687.716014622     A.U. after   15 cycles
 SCF Done:  E(RB3LYP) =  -687.753818843     A.U. after   14 cycles
 SCF Done:  E(RB3LYP) =  -687.758351335     A.U. after   16 cycles
 SCF Done:  E(RB3LYP) =  -687.758623344     A.U. after   13 cycles
 SCF Done:  E(RB3LYP) =  -687.758635980     A.U. after   11 cycles
 SCF Done:  E(RB3LYP) =  -687.758637883     A.U. after   11 cycles
 SCF Done:  E(RB3LYP) =  -687.758638154     A.U. after   10 cycles
 SCF Done:  E(RB3LYP) =  -687.758638165     A.U. after    8 cycles
 Optimization completed.
    -- Stationary point found.
 Normal termination of Gaussian 09 at Thu Aug 26 21:32:05 2021.

 ----------------------------------------------------------
 #P Geom=AllCheck Guess=TCheck SCRF=Check B3LYP/GTBas3 Freq
 ----------------------------------------------------------

 Structure from the checkpoint file:  "/public/home/users/caep010/.cache/gau_scr/Gau-186212.chk"
 --------
 JABMAD01
 --------
 Charge =  0 Multiplicity = 1

 SCF Done:  E(RB3LYP) =  -687.758638165     A.U. after    1 cycles

  Exact polarizability: 151.591  -3.455  97.194  -0.002   0.002  42.204
 Approx polarizability: 234.181   0.332 197.332  -0.006   0.002  71.250

                      1                      2                      3
                      A                      A                      A
 Frequencies --     16.9962                67.1735               107.8176
 Red. masses --      6.2207                13.3182                10.2258
 Frc consts  --      0.0011                 0.0354                 0.0700
 IR Inten    --      3.5495                 2.2786                 5.0488

                      4                      5                      6
                      A                      A                      A
 Frequencies --    110.2751               166.8369               249.7447
 Red. masses --      6.7716                10.3052                 8.6111
 Frc consts  --      0.0485                 0.1690                 0.3164
 IR Inten    --      5.8741                 0.8611                 1.3970

                      7                      8                      9
                      A                      A                      A
 Frequencies --    319.5014               366.7944               454.3205
 Red. masses --     11.9401                 8.1671                 7.3035
 Frc consts  --      0.7181                 0.6474                 0.8882
 IR Inten    --      6.3937                 0.0003                 0.3673

                     10                     11                     12
                      A                      A                      A
 Frequencies --    506.1489               601.1552               603.4289
 Red. masses --      8.6897                 5.1846                 6.7142
 Frc consts  --      1.3116                 1.1039                 1.4404
 IR Inten    --     12.1146                 1.2778                 0.3871

                     13                     14                     15
                      A                      A                      A
 Frequencies --    664.7840               676.0659               728.1288
 Red. masses --      3.8214                 3.5638                12.8734
 Frc consts  --      0.9950                 0.9597                 4.0212
 IR Inten    --     16.1667                 0.0058                 1.4205

                     16                     17                     18
                      A                      A                      A
 Frequencies --    763.6903               829.1905               830.9016
 Red. masses --     14.0575                 1.3602                13.7406
 Frc consts  --      4.8305                 0.5510                 5.5893
 IR Inten    --     12.2577                13.7852               201.0360

                     19                     20                     21
                      A                      A                      A
 Frequencies --    856.0369               882.2395               952.4217
 Red. masses --      1.4392                 1.4095                 7.6853
 Frc consts  --      0.6214                 0.6464                 4.1074
 IR Inten    --      4.0733                23.8729                51.2662

                     22                     23                     24
                      A                      A                      A
 Frequencies --    975.7587               987.9779              1030.0157
 Red. masses --      5.2554                 5.2315                 7.8177
 Frc consts  --      2.9481                 3.0087                 4.8867
 IR Inten    --     24.0141                 9.3104                35.1064

                     25                     26                     27
                      A                      A                      A
 Frequencies --   1053.9541              1098.6248              1126.5601
 Red. masses --      2.2012                 4.9609                 5.5865
 Frc consts  --      1.4406                 3.5279                 4.1774
 IR Inten    --    142.9055                12.0973               158.3150

                     28                     29                     30
                      A                      A                      A
 Frequencies --   1199.0510              1233.9653              1252.8181
 Red. masses --      1.9601                 2.2074                 2.4569
 Frc consts  --      1.6603                 1.9804                 2.2720
 IR Inten    --      0.8318                69.4227               123.5839

                     31                     32                     33
                      A                      A                      A
 Frequencies --   1318.3007              1344.6075              1385.2234
 Red. masses --      7.7362                 6.3505                 7.2631
 Frc consts  --      7.9215                 6.7647                 8.2113
 IR Inten    --     81.7530               269.0376                34.0251

                     34                     35                     36
                      A                      A                      A
 Frequencies --   1407.0668              1438.5125              1470.1018
 Red. masses --      6.0255                 7.1544                 6.7414
 Frc consts  --      7.0287                 8.7227                 8.5841
 IR Inten    --      5.3022                 2.3552                16.1977

                     37                     38                     39
                      A                      A                      A
 Frequencies --   1512.4237              1644.8578              1747.4451
 Red. masses --      5.4491                 7.6159                14.4339
 Frc consts  --      7.3438                12.1403                25.9681
 IR Inten    --     71.0019                34.0555               261.4073

                     40                     41                     42
                      A                      A                      A
 Frequencies --   3256.3181              3292.7060              3323.1320
 Red. masses --      1.0969                 1.0997                 1.0997
 Frc consts  --      6.8527                 7.0247                 7.1554
 IR Inten    --      0.3422                 2.0948                27.6534

 - Thermochemistry -
 -------------------
 Temperature   298.150 Kelvin.  Pressure   1.00000 Atm.
 Atom     1 has atomic number  8 and mass  15.99491

 Molecular mass:   181.03482 amu.
 Principal axes and moments of inertia in atomic units:
                           1         2         3
     Eigenvalues --   623.690544422.384875046.07527
           X            0.99998  -0.00672  -0.00000
           Y            0.00672   0.99998   0.00000
           Z            0.00000  -0.00000   1.00000
 This molecule is an asymmetric top.
 Rotational symmetry number  1.
 Warning -- assumption of classical behavior for rotation
           may cause significant error
 Rotational temperatures (Kelvin)      0.13887     0.01959     0.01716
 Rotational constants (GHZ):           2.89365     0.40809     0.35765
 Zero-point vibrational energy     262299.6 (Joules/Mol)
                                   62.69112 (Kcal/Mol)
 Warning -- explicit consideration of  12 degrees of freedom as
           vibrations may cause significant error
 Vibrational temperatures:     24.45    96.65   155.13   158.66   240.04
          (Kelvin)            359.33   459.69   527.73   653.67   728.23
                              864.93   868.20   956.47   972.71  1047.61
                             1098.78  1193.02  1195.48  1231.64  1269.34
                             1370.32  1403.90  1421.48  1481.96  1516.40
                             1580.67  1620.87  1725.16  1775.40  1802.52
                             1896.74  1934.59  1993.03  2024.45  2069.70
                             2115.15  2176.04  2366.58  2514.18  4685.11
                             4737.46  4781.24

 Zero-point correction=                           0.099905 (Hartree/Particle)
 Thermal correction to Energy=                    0.109553
 Thermal correction to Enthalpy=                  0.110497
 Thermal correction to Gibbs Free Energy=         0.062078
 Sum of electronic and zero-point Energies=           -687.658734
 Sum of electronic and thermal Energies=              -687.649085
 Sum of electronic and thermal Enthalpies=            -687.648141
 Sum of electronic and thermal Free Energies=         -687.696561

                     E (Thermal)             CV                S
                      KCal/Mol        Cal/Mol-Kelvin    Cal/Mol-Kelvin
 Total                   68.746             34.622            101.908
 Electronic               0.000              0.000              0.000
 Translational            0.889              2.981             41.487
 Rotational               0.889              2.981             31.010
 Vibrational             66.968             28.661             29.411
 Vibration     1          0.593              1.986              6.957
 Vibration     2          0.598              1.970              4.235
 Vibration     3          0.606              1.943              3.308
 Vibration     4          0.606              1.941              3.264
 Vibration     5          0.624              1.883              2.471
 Vibration     6          0.663              1.763              1.732
 Vibration     7          0.705              1.636              1.313
 Vibration     8          0.740              1.541              1.093
 Vibration     9          0.813              1.351              0.783
 Vibration    10          0.861              1.236              0.643
 Vibration    11          0.959              1.029              0.448
 Vibration    12          0.962              1.025              0.444

 Optimization completed.
    -- Stationary point found.
 Normal termination of Gaussian 09 at Thu Aug 26 21:34:23 2021.

 -----------------------------------------------------------------
 #P Geom=AllCheck Guess=TCheck SCRF=Check CCSD(T,E4T,FrzG4)/GTBas1
 -----------------------------------------------------------------

 Structure from the checkpoint file:  "/public/home/users/caep010/.cache/gau_scr/Gau-186212.chk"
 --------
 JABMAD01
 --------
 Charge =  0 Multiplicity = 1

 SCF Done:  E(RHF) =  -683.803469065     A.U. after   15 cycles
 E2 =    -0.2040293743D+01 EUMP2 =    -0.68584376280780D+03
 CCSD(T)
 CCSD(T)= -0.68593694936D+03
 MP4SDQ=-685.8476703\CCSD=-685.8404153\CCSD(T)=-685.9369494\RMSD=7.032e
 Normal termination of Gaussian 09 at Thu Aug 26 22:44:27 2021.

 ---------------------------------------------------------
 #P Geom=AllCheck Guess=TCheck SCRF=Check MP4=FrzG4/GTBas2
 ---------------------------------------------------------

 Structure from the checkpoint file:  "/public/home/users/caep010/.cache/gau_scr/Gau-186212.chk"
 --------
 JABMAD01
 --------
 Charge =  0 Multiplicity = 1

 SCF Done:  E(RHF) =  -683.821249056     A.U. after   14 cycles
 E2 =    -0.2063699060D+01 EUMP2 =    -0.68588494811590D+03
 Normal termination of Gaussian 09 at Thu Aug 26 23:12:12 2021.

 ---------------------------------------------------------
 #P Geom=AllCheck Guess=TCheck SCRF=Check MP4=FrzG4/GTBas3
 ---------------------------------------------------------

 Structure from the checkpoint file:  "/public/home/users/caep010/.cache/gau_scr/Gau-186212.chk"
 --------
 JABMAD01
 --------
 Charge =  0 Multiplicity = 1

 SCF Done:  E(RHF) =  -683.871943113     A.U. after   13 cycles
 E2 =    -0.2394441291D+01 EUMP2 =    -0.68626638440415D+03
 Normal termination of Gaussian 09 at Fri Aug 27 02:29:47 2021.

 -----------------------------------------------------------
 #P Geom=AllCheck Guess=TCheck SCRF=Check MP2=Full/GTLargeXP
 -----------------------------------------------------------

 Structure from the checkpoint file:  "/public/home/users/caep010/.cache/gau_scr/Gau-186212.chk"
 --------
 JABMAD01
 --------
 Charge =  0 Multiplicity = 1

 SCF Done:  E(RHF) =  -684.039532261     A.U. after   15 cycles
 E2 =    -0.3110633235D+01 EUMP2 =    -0.68715016549563D+03
 Normal termination of Gaussian 09 at Fri Aug 27 02:50:26 2021.
 SCF Done:  E(RHF) =  -684.093742069     A.U. after   10 cycles
 Normal termination of Gaussian 09 at Fri Aug 27 02:56:03 2021.

                         Standard orientation:
 ---------------------------------------------------------------------
 Center     Atomic      Atomic             Coordinates (Angstroms)
 Number     Number       Type             X           Y           Z
 ---------------------------------------------------------------------
      1          8           0        3.931415    0.401180   -0.000079
      2          7           0        3.039692   -0.402116    0.000097
      3          8           0        3.079859   -1.612737    0.000355
      4          7           0        1.700096    0.138506   -0.000007
      5          6           0        0.557051   -0.609492    0.000150
      6          6           0       -0.448954    0.324849   -0.000050
      7          7           0       -1.822104    0.060297   -0.000015
      8          6           0        0.194300    1.594137   -0.000322
      9          7           0       -2.296150   -1.214853   -0.000602
     10          7           0       -3.579654   -1.126193   -0.000349
     11          7           0       -3.988134    0.172599    0.000388
     12          6           0       -2.889178    0.889202    0.000591
     13          7           0        1.509798    1.463218   -0.000285
     14          1           0       -0.246966    2.579384   -0.000560
     15          1           0        0.558458   -1.683743    0.000357
     16          1           0       -2.825812    1.964425    0.001183
 ---------------------------------------------------------------------

 SCF Done:  E(RHF) =  -684.103856610     A.U. after    7 cycles

 The electronic state is 1-A.
 Alpha  occ. eigenvalues --  -20.65227 -20.64562 -15.93753 -15.74356 -15.71038
 Alpha  occ. eigenvalues --  -15.67947 -15.66709 -15.65753 -15.62016 -11.35544
 Alpha  occ. eigenvalues --  -11.34269 -11.33989 -11.32826  -1.67960  -1.51279
 Alpha  occ. eigenvalues --   -1.46949  -1.45552  -1.30117  -1.21623  -1.19775
 Alpha  occ. eigenvalues --   -1.12980  -1.00451  -0.93891  -0.91825  -0.86096
 Alpha  occ. eigenvalues --   -0.85121  -0.82227  -0.79933  -0.78515  -0.76359
 Alpha  occ. eigenvalues --   -0.71307  -0.70627  -0.69329  -0.66361  -0.64563
 Alpha  occ. eigenvalues --   -0.58847  -0.55439  -0.54855  -0.53117  -0.51959
 Alpha  occ. eigenvalues --   -0.50497  -0.49688  -0.48874  -0.43953  -0.43147
 Alpha  occ. eigenvalues --   -0.38266
 Alpha virt. eigenvalues --    0.02115   0.02220   0.03546   0.03900   0.04217
 Alpha virt. eigenvalues --    0.05892   0.06040   0.06310   0.06569   0.06923
 Alpha virt. eigenvalues --    0.08206   0.08486   0.08671   0.09012   0.09710

 Mulliken charges:
               1
     1  O   -0.342156
     2  N    0.573062
     3  O   -0.394162
     4  N    0.200767
     5  C   -0.143599
     6  C    0.245494
     7  N    0.069137
     8  C   -0.021346
     9  N   -0.099859
    10  N   -0.141902
    11  N   -0.322248
    12  C    0.001386
    13  N   -0.415005
    14  H    0.228485
    15  H    0.318316
    16  H    0.243632
 Sum of Mulliken charges =  -0.00000

 Dipole moment (field-independent basis, Debye):
    X=              0.0951    Y=              3.0031    Z=              0.0014  Tot=              3.0046
 Quadrupole moment (field-independent basis, Debye-Ang):
   XX=           -105.3875   YY=            -72.1126   ZZ=            -72.0939
   XY=            -11.2101   XZ=             -0.0024   YZ=             -0.0000

 Normal termination of Gaussian 09 at Fri Aug 27 03:31:08 2021.
