 Gaussian 09, Revision E.01,
 Gaussian 09:  ES64L-G09RevE.01 30-Nov-2015

 ----------------
 #P G4 OPT=calcfc
 ----------------

 ------
 JERVUY
 ------
 Symbolic Z-matrix:
 Charge =  0 Multiplicity = 1

 SCF Done:  E(RB3LYP) =  -732.486375409     A.U. after   17 cycles
 SCF Done:  E(RB3LYP) =  -732.546978204     A.U. after   17 cycles
 SCF Done:  E(RB3LYP) =  -732.552832851     A.U. after   17 cycles
 SCF Done:  E(RB3LYP) =  -732.544933754     A.U. after   17 cycles
 SCF Done:  E(RB3LYP) =  -732.556254963     A.U. after   14 cycles
 SCF Done:  E(RB3LYP) =  -732.556839774     A.U. after   13 cycles
 SCF Done:  E(RB3LYP) =  -732.557144774     A.U. after   14 cycles
 SCF Done:  E(RB3LYP) =  -732.557405272     A.U. after   14 cycles
 SCF Done:  E(RB3LYP) =  -732.557819514     A.U. after   15 cycles
 SCF Done:  E(RB3LYP) =  -732.558316570     A.U. after   15 cycles
 SCF Done:  E(RB3LYP) =  -732.559327209     A.U. after   11 cycles
 SCF Done:  E(RB3LYP) =  -732.559327499     A.U. after    9 cycles
 SCF Done:  E(RB3LYP) =  -732.559327578     A.U. after    9 cycles
 Optimization completed.
    -- Stationary point found.
 Normal termination of Gaussian 09 at Thu Aug 26 21:50:31 2021.

 ----------------------------------------------------------
 #P Geom=AllCheck Guess=TCheck SCRF=Check B3LYP/GTBas3 Freq
 ----------------------------------------------------------

 Structure from the checkpoint file:  "/public/home/users/caep010/.cache/gau_scr/Gau-156982.chk"
 ------
 JERVUY
 ------
 Charge =  0 Multiplicity = 1

 SCF Done:  E(RB3LYP) =  -732.559327578     A.U. after    1 cycles

  Exact polarizability: 139.738   5.094 109.375   1.097   1.498  41.913
 Approx polarizability: 244.104  24.009 221.682   6.481   8.474  72.325

                      1                      2                      3
                      A                      A                      A
 Frequencies --     38.0784                65.0104                95.3813
 Red. masses --     15.5779                15.2250                 9.2980
 Frc consts  --      0.0133                 0.0379                 0.0498
 IR Inten    --      0.2115                 0.1153                11.2208

                      4                      5                      6
                      A                      A                      A
 Frequencies --    148.8701               159.1725               263.8040
 Red. masses --      6.3221                13.5233                11.1134
 Frc consts  --      0.0826                 0.2019                 0.4557
 IR Inten    --      1.4829                 3.2566                 2.8320

                      7                      8                      9
                      A                      A                      A
 Frequencies --    282.8849               345.3742               357.7451
 Red. masses --      9.4267                12.7131                12.1249
 Frc consts  --      0.4445                 0.8935                 0.9143
 IR Inten    --      0.2597                 0.1507                 0.5234

                     10                     11                     12
                      A                      A                      A
 Frequencies --    404.4796               447.2831               507.1593
 Red. masses --      5.6406                 5.8707                 3.3111
 Frc consts  --      0.5437                 0.6920                 0.5018
 IR Inten    --      1.4685                 1.7285                18.0792

                     13                     14                     15
                      A                      A                      A
 Frequencies --    527.4817               588.7440               640.5930
 Red. masses --      7.8201                 5.4643                 7.4965
 Frc consts  --      1.2820                 1.1159                 1.8125
 IR Inten    --     10.5799                 3.2918                 2.9717

                     16                     17                     18
                      A                      A                      A
 Frequencies --    704.8749               730.7691               762.3181
 Red. masses --      5.7708                 3.0267                 2.1124
 Frc consts  --      1.6893                 0.9523                 0.7233
 IR Inten    --     26.8714                52.9573                24.1649

                     19                     20                     21
                      A                      A                      A
 Frequencies --    774.9490               811.6729               826.1964
 Red. masses --      7.6248                 7.0353                 7.1948
 Frc consts  --      2.6979                 2.7308                 2.8936
 IR Inten    --     14.6840                30.5129                26.0222

                     22                     23                     24
                      A                      A                      A
 Frequencies --    848.8483               944.3751               980.3760
 Red. masses --     11.8413                 8.6743                 1.4203
 Frc consts  --      5.0270                 4.5580                 0.8043
 IR Inten    --     15.0384                 7.7878                 0.7778

                     25                     26                     27
                      A                      A                      A
 Frequencies --   1004.4481              1040.5983              1115.2570
 Red. masses --      1.4584                 3.3085                 2.0072
 Frc consts  --      0.8669                 2.1108                 1.4709
 IR Inten    --     11.0125                 3.2886                98.0043

                     28                     29                     30
                      A                      A                      A
 Frequencies --   1181.5610              1237.9105              1319.7125
 Red. masses --      2.2971                 2.1150                 1.9576
 Frc consts  --      1.8895                 1.9096                 2.0088
 IR Inten    --     56.5230                49.4622                 6.4186

                     31                     32                     33
                      A                      A                      A
 Frequencies --   1376.0174              1396.3673              1432.9655
 Red. masses --     14.1008                13.1548                 2.7954
 Frc consts  --     15.7304                15.1124                 3.3820
 IR Inten    --    453.1521               259.2785                 3.9654

                     34                     35                     36
                      A                      A                      A
 Frequencies --   1489.6923              1575.7892              1633.3414
 Red. masses --      3.4414                 6.3433                10.7007
 Frc consts  --      4.4997                 9.2803                16.8196
 IR Inten    --     27.8634                24.0043                98.7636

                     37                     38                     39
                      A                      A                      A
 Frequencies --   1641.5615              1671.2722              1825.5168
 Red. masses --     12.5218                 7.5807                10.2062
 Frc consts  --     19.8807                12.4753                20.0395
 IR Inten    --    153.0723               205.2827               498.2172

                     40                     41                     42
                      A                      A                      A
 Frequencies --   3237.1529              3238.2847              3586.5082
 Red. masses --      1.0910                 1.0934                 1.0782
 Frc consts  --      6.7359                 6.7556                 8.1712
 IR Inten    --     12.9129                13.5450               103.8778

 - Thermochemistry -
 -------------------
 Temperature   298.150 Kelvin.  Pressure   1.00000 Atm.
 Atom     1 has atomic number  7 and mass  14.00307

 Molecular mass:   185.00727 amu.
 Principal axes and moments of inertia in atomic units:
                           1         2         3
     Eigenvalues --  1216.708063213.666354392.83465
           X            0.99998  -0.00624  -0.00001
           Y            0.00624   0.99998  -0.00049
           Z            0.00002   0.00049   1.00000
 This molecule is an asymmetric top.
 Rotational symmetry number  1.
 Warning -- assumption of classical behavior for rotation
           may cause significant error
 Rotational temperatures (Kelvin)      0.07119     0.02695     0.01972
 Rotational constants (GHZ):           1.48330     0.56158     0.41084
 Zero-point vibrational energy     258754.6 (Joules/Mol)
                                   61.84384 (Kcal/Mol)
 Warning -- explicit consideration of  14 degrees of freedom as
           vibrations may cause significant error
 Vibrational temperatures:     54.79    93.54   137.23   214.19   229.01
          (Kelvin)            379.55   407.01   496.92   514.71   581.96
                              643.54   729.69   758.93   847.07   921.67
                             1014.16  1051.41  1096.80  1114.98  1167.81
                             1188.71  1221.30  1358.74  1410.54  1445.17
                             1497.19  1604.60  1700.00  1781.07  1898.77
                             1979.78  2009.06  2061.72  2143.33  2267.21
                             2350.01  2361.84  2404.58  2626.51  4657.54
                             4659.16  5160.18

 Zero-point correction=                           0.098554 (Hartree/Particle)
 Thermal correction to Energy=                    0.108854
 Thermal correction to Enthalpy=                  0.109798
 Thermal correction to Gibbs Free Energy=         0.060967
 Sum of electronic and zero-point Energies=           -732.460773
 Sum of electronic and thermal Energies=              -732.450473
 Sum of electronic and thermal Enthalpies=            -732.449529
 Sum of electronic and thermal Free Energies=         -732.498361

                     E (Thermal)             CV                S
                      KCal/Mol        Cal/Mol-Kelvin    Cal/Mol-Kelvin
 Total                   68.307             37.278            102.775
 Electronic               0.000              0.000              0.000
 Translational            0.889              2.981             41.552
 Rotational               0.889              2.981             31.219
 Vibrational             66.530             31.317             30.005
 Vibration     1          0.594              1.982              5.357
 Vibration     2          0.597              1.971              4.299
 Vibration     3          0.603              1.952              3.547
 Vibration     4          0.618              1.904              2.687
 Vibration     5          0.621              1.892              2.560
 Vibration     6          0.670              1.739              1.636
 Vibration     7          0.682              1.705              1.516
 Vibration     8          0.724              1.585              1.187
 Vibration     9          0.733              1.559              1.132
 Vibration    10          0.770              1.460              0.946
 Vibration    11          0.806              1.367              0.804
 Vibration    12          0.862              1.234              0.640
 Vibration    13          0.882              1.189              0.593
 Vibration    14          0.946              1.056              0.469

 Optimization completed.
    -- Stationary point found.
 Normal termination of Gaussian 09 at Thu Aug 26 21:52:59 2021.

 -----------------------------------------------------------------
 #P Geom=AllCheck Guess=TCheck SCRF=Check CCSD(T,E4T,FrzG4)/GTBas1
 -----------------------------------------------------------------

 Structure from the checkpoint file:  "/public/home/users/caep010/.cache/gau_scr/Gau-156982.chk"
 ------
 JERVUY
 ------
 Charge =  0 Multiplicity = 1

 SCF Done:  E(RHF) =  -728.481660056     A.U. after   17 cycles
 E2 =    -0.2046099104D+01 EUMP2 =    -0.73052775916057D+03
 CCSD(T)
 CCSD(T)= -0.73062073904D+03
 794\CCSD=-730.5281921\CCSD(T)=-730.620739\RMSD=3.785e-09\PG=C01 [X(C5H
 Normal termination of Gaussian 09 at Thu Aug 26 23:22:26 2021.

 ---------------------------------------------------------
 #P Geom=AllCheck Guess=TCheck SCRF=Check MP4=FrzG4/GTBas2
 ---------------------------------------------------------

 Structure from the checkpoint file:  "/public/home/users/caep010/.cache/gau_scr/Gau-156982.chk"
 ------
 JERVUY
 ------
 Charge =  0 Multiplicity = 1

 SCF Done:  E(RHF) =  -728.502440396     A.U. after   17 cycles
 E2 =    -0.2073973418D+01 EUMP2 =    -0.73057641381347D+03
 Normal termination of Gaussian 09 at Thu Aug 26 23:50:27 2021.

 ---------------------------------------------------------
 #P Geom=AllCheck Guess=TCheck SCRF=Check MP4=FrzG4/GTBas3
 ---------------------------------------------------------

 Structure from the checkpoint file:  "/public/home/users/caep010/.cache/gau_scr/Gau-156982.chk"
 ------
 JERVUY
 ------
 Charge =  0 Multiplicity = 1

 SCF Done:  E(RHF) =  -728.555430777     A.U. after   13 cycles
 E2 =    -0.2435819308D+01 EUMP2 =    -0.73099125008410D+03
 Normal termination of Gaussian 09 at Fri Aug 27 02:24:32 2021.

 -----------------------------------------------------------
 #P Geom=AllCheck Guess=TCheck SCRF=Check MP2=Full/GTLargeXP
 -----------------------------------------------------------

 Structure from the checkpoint file:  "/public/home/users/caep010/.cache/gau_scr/Gau-156982.chk"
 ------
 JERVUY
 ------
 Charge =  0 Multiplicity = 1

 SCF Done:  E(RHF) =  -728.744614567     A.U. after   18 cycles
 E2 =    -0.3170740521D+01 EUMP2 =    -0.73191535508753D+03
 Normal termination of Gaussian 09 at Fri Aug 27 02:45:15 2021.
 SCF Done:  E(RHF) =  -728.802941054     A.U. after   11 cycles
 Normal termination of Gaussian 09 at Fri Aug 27 02:51:40 2021.

                         Standard orientation:
 ---------------------------------------------------------------------
 Center     Atomic      Atomic             Coordinates (Angstroms)
 Number     Number       Type             X           Y           Z
 ---------------------------------------------------------------------
      1          7           0        0.003843    1.999284   -0.037657
      2          6           0        1.249710    1.290697   -0.057383
      3          1           0        0.123138    3.004876   -0.061126
      4          8           0        2.273309    1.923048   -0.128964
      5          6           0        1.030754   -0.156673   -0.016247
      6          7           0        2.188986   -1.062366    0.020562
      7          8           0        3.243688   -0.610077    0.429412
      8          6           0       -0.210327   -0.717298   -0.007473
      9          8           0        1.997586   -2.217666   -0.342421
     10          1           0       -0.315468   -1.794593   -0.005612
     11          6           0       -1.358359    0.102582    0.005297
     12          7           0       -2.690913   -0.478079    0.036047
     13          8           0       -2.768524   -1.698510    0.050056
     14          8           0       -3.642298    0.296475    0.045513
     15          6           0       -1.223472    1.465153   -0.007471
     16          1           0       -2.080998    2.124927    0.004973
 ---------------------------------------------------------------------

 SCF Done:  E(RHF) =  -728.814405339     A.U. after    8 cycles

 The electronic state is 1-A.
 Alpha  occ. eigenvalues --  -20.63130 -20.62658 -20.61675 -20.60866 -20.57498
 Alpha  occ. eigenvalues --  -15.88803 -15.87031 -15.69290 -11.42509 -11.39642
 Alpha  occ. eigenvalues --  -11.34729 -11.34319 -11.34275  -1.63615  -1.62074
 Alpha  occ. eigenvalues --   -1.45044  -1.43035  -1.41416  -1.35086  -1.20867
 Alpha  occ. eigenvalues --   -1.15186  -1.01573  -1.00971  -0.94731  -0.86976
 Alpha  occ. eigenvalues --   -0.83184  -0.79851  -0.78025  -0.76178  -0.75577
 Alpha  occ. eigenvalues --   -0.74984  -0.74132  -0.73375  -0.71608  -0.66860
 Alpha  occ. eigenvalues --   -0.66230  -0.63482  -0.55532  -0.53543  -0.53107
 Alpha  occ. eigenvalues --   -0.51957  -0.51557  -0.49488  -0.48501  -0.48174
 Alpha  occ. eigenvalues --   -0.46399  -0.38699
 Alpha virt. eigenvalues --    0.00307   0.01217   0.01969   0.04061   0.04079
 Alpha virt. eigenvalues --    0.04390   0.05901   0.06431   0.06592   0.06886
 Alpha virt. eigenvalues --    0.07375   0.08275   0.08651   0.08921   0.09204

 Mulliken charges:
               1
     1  N   -0.416915
     2  C    0.382272
     3  H    0.403363
     4  O   -0.567213
     5  C    0.147716
     6  N    0.508014
     7  O   -0.369671
     8  C   -0.022365
     9  O   -0.443505
    10  H    0.308951
    11  C    0.157948
    12  N    0.526545
    13  O   -0.427869
    14  O   -0.444307
    15  C   -0.032566
    16  H    0.289602
 Sum of Mulliken charges =  -0.00000

 Dipole moment (field-independent basis, Debye):
    X=             -3.3968    Y=              4.7144    Z=              0.0206  Tot=              5.8107
 Quadrupole moment (field-independent basis, Debye-Ang):
   XX=           -105.5608   YY=            -70.4540   ZZ=            -70.8508
   XY=             -7.0957   XZ=             -0.1978   YZ=             -0.8066

 Normal termination of Gaussian 09 at Fri Aug 27 03:32:20 2021.
