 Gaussian 09, Revision E.01,
 Gaussian 09:  ES64L-G09RevE.01 30-Nov-2015

 ----------------
 #P G4 OPT=calcfc
 ----------------

 --------
 JOHBUD01
 --------
 Symbolic Z-matrix:
 Charge =  0 Multiplicity = 1

 SCF Done:  E(RB3LYP) =  -604.194737652     A.U. after   14 cycles
 SCF Done:  E(RB3LYP) =  -604.270171342     A.U. after   14 cycles
 SCF Done:  E(RB3LYP) =  -604.312910554     A.U. after   14 cycles
 SCF Done:  E(RB3LYP) =  -604.314624934     A.U. after   13 cycles
 SCF Done:  E(RB3LYP) =  -604.314680053     A.U. after   11 cycles
 SCF Done:  E(RB3LYP) =  -604.314710579     A.U. after   11 cycles
 SCF Done:  E(RB3LYP) =  -604.314719640     A.U. after    9 cycles
 SCF Done:  E(RB3LYP) =  -604.314719972     A.U. after    7 cycles
 Optimization completed.
    -- Stationary point found.
 Normal termination of Gaussian 09 at Thu Aug 26 21:36:03 2021.

 ----------------------------------------------------------
 #P Geom=AllCheck Guess=TCheck SCRF=Check B3LYP/GTBas3 Freq
 ----------------------------------------------------------

 Structure from the checkpoint file:  "/public/home/users/caep010/.cache/gau_scr/Gau-48273.chk"
 --------
 JOHBUD01
 --------
 Charge =  0 Multiplicity = 1

 SCF Done:  E(RB3LYP) =  -604.314719972     A.U. after    1 cycles

  Exact polarizability:  87.257  -0.000  77.613  -2.532  -0.000  75.771
 Approx polarizability: 124.694  -0.000 113.817 -11.784  -0.000 157.964

                      1                      2                      3
                      A                      A                      A
 Frequencies --     55.5854                64.2783               124.7720
 Red. masses --     15.6025                10.4481                 4.4164
 Frc consts  --      0.0284                 0.0254                 0.0405
 IR Inten    --      0.3727                 0.4292                 0.0804

                      4                      5                      6
                      A                      A                      A
 Frequencies --    129.3764               162.9612               184.6577
 Red. masses --      7.9100                 6.5534                 2.5727
 Frc consts  --      0.0780                 0.1025                 0.0517
 IR Inten    --      8.8230                 6.5842                 0.0240

                      7                      8                      9
                      A                      A                      A
 Frequencies --    293.8489               306.3681               412.6310
 Red. masses --      5.6367                 2.9235                11.3989
 Frc consts  --      0.2868                 0.1617                 1.1435
 IR Inten    --      1.8869                 1.3591                 1.9758

                     10                     11                     12
                      A                      A                      A
 Frequencies --    430.5633               526.4575               594.4955
 Red. masses --      5.5286                 4.7320                 5.3950
 Frc consts  --      0.6039                 0.7727                 1.1234
 IR Inten    --      1.0430                11.6377                 2.0906

                     13                     14                     15
                      A                      A                      A
 Frequencies --    682.3717               754.4510               772.7020
 Red. masses --      6.7505                 3.8771                 1.1793
 Frc consts  --      1.8520                 1.3002                 0.4148
 IR Inten    --     21.7990                 3.0964                 5.6094

                     16                     17                     18
                      A                      A                      A
 Frequencies --    789.1571               790.4330               897.3087
 Red. masses --      3.7540                 6.2674                 3.2388
 Frc consts  --      1.3774                 2.3071                 1.5364
 IR Inten    --     10.8480                 1.0057                 0.1157

                     19                     20                     21
                      A                      A                      A
 Frequencies --    919.0410               937.5541               957.0293
 Red. masses --      2.2986                 4.6069                 5.1977
 Frc consts  --      1.1439                 2.3859                 2.8049
 IR Inten    --      1.0392                24.2425                56.5668

                     22                     23                     24
                      A                      A                      A
 Frequencies --   1006.7026              1012.2922              1048.5690
 Red. masses --      1.9655                 3.0807                 1.2325
 Frc consts  --      1.1736                 1.8600                 0.7985
 IR Inten    --      5.5356                 5.5603                 2.1974

                     25                     26                     27
                      A                      A                      A
 Frequencies --   1088.4608              1090.3906              1099.2118
 Red. masses --      1.2436                 1.4830                 2.6214
 Frc consts  --      0.8681                 1.0388                 1.8661
 IR Inten    --      0.0109                 0.1916                 2.1223

                     28                     29                     30
                      A                      A                      A
 Frequencies --   1105.6199              1169.1770              1178.0386
 Red. masses --      1.6938                 1.9488                 1.2935
 Frc consts  --      1.2199                 1.5695                 1.0576
 IR Inten    --      2.8678                24.0724                 0.0180

                     31                     32                     33
                      A                      A                      A
 Frequencies --   1253.9476              1282.6875              1408.3452
 Red. masses --      1.3022                 1.5595                14.2072
 Frc consts  --      1.2064                 1.5117                16.6026
 IR Inten    --     10.4063                 3.4284               261.1781

                     34                     35                     36
                      A                      A                      A
 Frequencies --   1417.1498              1463.4809              1468.8989
 Red. masses --     12.5852                 1.0866                 1.2850
 Frc consts  --     14.8916                 1.3712                 1.6335
 IR Inten    --     42.6987                 2.6462                 4.8351

                     37                     38                     39
                      A                      A                      A
 Frequencies --   1553.6067              1653.7733              1659.1325
 Red. masses --      5.3411                12.5901                11.2488
 Frc consts  --      7.5955                20.2876                18.2439
 IR Inten    --     15.0975               412.6359                56.2638

                     40                     41                     42
                      A                      A                      A
 Frequencies --   3141.3812              3143.1028              3224.1220
 Red. masses --      1.0504                 1.0583                 1.1191
 Frc consts  --      6.1073                 6.1599                 6.8537
 IR Inten    --      4.5740                 3.9799                 0.0653

                     43                     44                     45
                      A                      A                      A
 Frequencies --   3229.5887              3230.0461              3236.6336
 Red. masses --      1.0934                 1.0876                 1.1161
 Frc consts  --      6.7193                 6.6856                 6.8886
 IR Inten    --      0.0891                 5.7634                 2.8631

 - Thermochemistry -
 -------------------
 Temperature   298.150 Kelvin.  Pressure   1.00000 Atm.
 Atom     1 has atomic number  6 and mass  12.00000

 Molecular mass:   158.03276 amu.
 Principal axes and moments of inertia in atomic units:
                           1         2         3
     Eigenvalues --  1156.438292062.743422582.23541
           X            1.00000  -0.00000   0.00134
           Y            0.00000   1.00000   0.00000
           Z           -0.00134  -0.00000   1.00000
 This molecule is an asymmetric top.
 Rotational symmetry number  1.
 Warning -- assumption of classical behavior for rotation
           may cause significant error
 Rotational temperatures (Kelvin)      0.07490     0.04199     0.03354
 Rotational constants (GHZ):           1.56060     0.87492     0.69891
 Zero-point vibrational energy     316713.7 (Joules/Mol)
                                   75.69640 (Kcal/Mol)
 Warning -- explicit consideration of  12 degrees of freedom as
           vibrations may cause significant error
 Vibrational temperatures:     79.97    92.48   179.52   186.14   234.46
          (Kelvin)            265.68   422.78   440.79   593.68   619.48
                              757.45   855.35   981.78  1085.49  1111.74
                             1135.42  1137.26  1291.03  1322.29  1348.93
                             1376.95  1448.42  1456.46  1508.66  1566.05
                             1568.83  1581.52  1590.74  1682.18  1694.93
                             1804.15  1845.50  2026.29  2038.96  2105.62
                             2113.42  2235.29  2379.41  2387.12  4519.74
                             4522.22  4638.79  4646.65  4647.31  4656.79

 Zero-point correction=                           0.120630 (Hartree/Particle)
 Thermal correction to Energy=                    0.130409
 Thermal correction to Enthalpy=                  0.131353
 Thermal correction to Gibbs Free Energy=         0.084250
 Sum of electronic and zero-point Energies=           -604.194090
 Sum of electronic and thermal Energies=              -604.184311
 Sum of electronic and thermal Enthalpies=            -604.183367
 Sum of electronic and thermal Free Energies=         -604.230470

                     E (Thermal)             CV                S
                      KCal/Mol        Cal/Mol-Kelvin    Cal/Mol-Kelvin
 Total                   81.833             34.906             99.138
 Electronic               0.000              0.000              0.000
 Translational            0.889              2.981             41.082
 Rotational               0.889              2.981             30.200
 Vibrational             80.056             28.945             27.855
 Vibration     1          0.596              1.975              4.608
 Vibration     2          0.597              1.971              4.321
 Vibration     3          0.610              1.928              3.025
 Vibration     4          0.612              1.924              2.955
 Vibration     5          0.623              1.888              2.515
 Vibration     6          0.631              1.861              2.281
 Vibration     7          0.689              1.685              1.452
 Vibration     8          0.697              1.662              1.382
 Vibration     9          0.776              1.443              0.917
 Vibration    10          0.792              1.404              0.857
 Vibration    11          0.881              1.191              0.595
 Vibration    12          0.952              1.044              0.459

 Optimization completed.
    -- Stationary point found.
 Normal termination of Gaussian 09 at Thu Aug 26 21:37:55 2021.

 -----------------------------------------------------------------
 #P Geom=AllCheck Guess=TCheck SCRF=Check CCSD(T,E4T,FrzG4)/GTBas1
 -----------------------------------------------------------------

 Structure from the checkpoint file:  "/public/home/users/caep010/.cache/gau_scr/Gau-48273.chk"
 --------
 JOHBUD01
 --------
 Charge =  0 Multiplicity = 1

 SCF Done:  E(RHF) =  -600.850441753     A.U. after   14 cycles
 E2 =    -0.1729969262D+01 EUMP2 =    -0.60258041101555D+03
 CCSD(T)
 CCSD(T)= -0.60266980772D+03
 5960869\CCSD(T)=-602.6698077\RMSD=9.561e-09\PG=C01 [X(C5H6N2O4)]\\@
 Normal termination of Gaussian 09 at Thu Aug 26 22:15:15 2021.

 ---------------------------------------------------------
 #P Geom=AllCheck Guess=TCheck SCRF=Check MP4=FrzG4/GTBas2
 ---------------------------------------------------------

 Structure from the checkpoint file:  "/public/home/users/caep010/.cache/gau_scr/Gau-48273.chk"
 --------
 JOHBUD01
 --------
 Charge =  0 Multiplicity = 1

 SCF Done:  E(RHF) =  -600.867721520     A.U. after   14 cycles
 E2 =    -0.1754915166D+01 EUMP2 =    -0.60262263668572D+03
 Normal termination of Gaussian 09 at Thu Aug 26 22:26:58 2021.

 ---------------------------------------------------------
 #P Geom=AllCheck Guess=TCheck SCRF=Check MP4=FrzG4/GTBas3
 ---------------------------------------------------------

 Structure from the checkpoint file:  "/public/home/users/caep010/.cache/gau_scr/Gau-48273.chk"
 --------
 JOHBUD01
 --------
 Charge =  0 Multiplicity = 1

 SCF Done:  E(RHF) =  -600.913388838     A.U. after   13 cycles
 E2 =    -0.2073288899D+01 EUMP2 =    -0.60298667773759D+03
 Normal termination of Gaussian 09 at Fri Aug 27 00:04:23 2021.

 -----------------------------------------------------------
 #P Geom=AllCheck Guess=TCheck SCRF=Check MP2=Full/GTLargeXP
 -----------------------------------------------------------

 Structure from the checkpoint file:  "/public/home/users/caep010/.cache/gau_scr/Gau-48273.chk"
 --------
 JOHBUD01
 --------
 Charge =  0 Multiplicity = 1

 SCF Done:  E(RHF) =  -601.067222119     A.U. after   13 cycles
 E2 =    -0.2693822098D+01 EUMP2 =    -0.60376104421688D+03
 Normal termination of Gaussian 09 at Fri Aug 27 00:16:27 2021.
 SCF Done:  E(RHF) =  -601.115545119     A.U. after   10 cycles
 Normal termination of Gaussian 09 at Fri Aug 27 00:20:51 2021.

                         Standard orientation:
 ---------------------------------------------------------------------
 Center     Atomic      Atomic             Coordinates (Angstroms)
 Number     Number       Type             X           Y           Z
 ---------------------------------------------------------------------
      1          6           0       -0.555133   -0.282363    0.523874
      2          6           0        0.555135   -0.282361   -0.523872
      3          6           0       -0.000000    0.978335    0.000002
      4          6           0       -0.503217    2.251740   -0.569199
      5          6           0        0.503208    2.251745    0.569199
      6          1           0       -1.529512    2.524802   -0.350529
      7          1           0        1.529501    2.524813    0.350528
      8          1           0       -0.160369    2.528409   -1.559988
      9          1           0        0.160358    2.528415    1.559987
     10          7           0       -1.891782   -0.722929    0.063281
     11          7           0        1.891785   -0.722925   -0.063281
     12          8           0       -2.597801   -1.258944    0.901644
     13          8           0        2.597804   -1.258937   -0.901646
     14          8           0       -2.193072   -0.506383   -1.101963
     15          8           0        2.193075   -0.506382    1.101963
     16          1           0       -0.338533   -0.621434    1.527395
     17          1           0        0.338533   -0.621431   -1.527393
 ---------------------------------------------------------------------

 SCF Done:  E(RHF) =  -601.125248722     A.U. after    8 cycles

 The electronic state is 1-A.
 Alpha  occ. eigenvalues --  -20.62409 -20.62409 -20.61952 -20.61952 -15.87167
 Alpha  occ. eigenvalues --  -15.87166 -11.34791 -11.34727 -11.31126 -11.27994
 Alpha  occ. eigenvalues --  -11.27931  -1.62770  -1.62591  -1.42286  -1.42259
 Alpha  occ. eigenvalues --   -1.26607  -1.15269  -1.07167  -0.97159  -0.87828
 Alpha  occ. eigenvalues --   -0.84553  -0.82902  -0.79153  -0.76567  -0.75058
 Alpha  occ. eigenvalues --   -0.74837  -0.73378  -0.73119  -0.69201  -0.67437
 Alpha  occ. eigenvalues --   -0.56971  -0.56145  -0.56096  -0.52510  -0.51341
 Alpha  occ. eigenvalues --   -0.51038  -0.49176  -0.48087  -0.47554  -0.46728
 Alpha  occ. eigenvalues --   -0.46000
 Alpha virt. eigenvalues --    0.02328   0.03591   0.04162   0.04232   0.04949
 Alpha virt. eigenvalues --    0.05943   0.05953   0.06780   0.07137   0.07325
 Alpha virt. eigenvalues --    0.08329   0.09009   0.09223   0.09437   0.09990

 Mulliken charges:
               1
     1  C   -0.136272
     2  C   -0.136272
     3  C    0.274113
     4  C   -0.396450
     5  C   -0.396450
     6  H    0.208144
     7  H    0.208144
     8  H    0.203567
     9  H    0.203567
    10  N    0.534605
    11  N    0.534605
    12  O   -0.420766
    13  O   -0.420765
    14  O   -0.424143
    15  O   -0.424143
    16  H    0.294258
    17  H    0.294259
 Sum of Mulliken charges =  -0.00000

 Dipole moment (field-independent basis, Debye):
    X=             -0.0000    Y=              3.8226    Z=             -0.0000  Tot=              3.8226
 Quadrupole moment (field-independent basis, Debye-Ang):
   XX=            -82.3620   YY=            -59.5824   ZZ=            -64.4144
   XY=             -0.0000   XZ=             -1.9514   YZ=              0.0000

 Normal termination of Gaussian 09 at Fri Aug 27 00:50:29 2021.
