 Gaussian 09, Revision E.01,
 Gaussian 09:  ES64L-G09RevE.01 30-Nov-2015

 ----------------
 #P G4 OPT=calcfc
 ----------------

 ------
 JOWWIB
 ------
 Symbolic Z-matrix:
 Charge =  0 Multiplicity = 1

 SCF Done:  E(RB3LYP) =  -502.062033586     A.U. after   15 cycles
 SCF Done:  E(RB3LYP) =  -502.126442017     A.U. after   13 cycles
 SCF Done:  E(RB3LYP) =  -502.135770102     A.U. after   16 cycles
 SCF Done:  E(RB3LYP) =  -502.136613513     A.U. after   14 cycles
 SCF Done:  E(RB3LYP) =  -502.136666309     A.U. after   13 cycles
 SCF Done:  E(RB3LYP) =  -502.136676921     A.U. after   10 cycles
 SCF Done:  E(RB3LYP) =  -502.136679845     A.U. after   10 cycles
 SCF Done:  E(RB3LYP) =  -502.136680240     A.U. after    8 cycles
 Optimization completed.
    -- Stationary point found.
 Normal termination of Gaussian 09 at Wed Aug 25 17:48:34 2021.

 ----------------------------------------------------------
 #P Geom=AllCheck Guess=TCheck SCRF=Check B3LYP/GTBas3 Freq
 ----------------------------------------------------------

 Structure from the checkpoint file:  "/public/home/users/caep010/.cache/gau_scr/Gau-55802.chk"
 ------
 JOWWIB
 ------
 Charge =  0 Multiplicity = 1

 SCF Done:  E(RB3LYP) =  -502.136680240     A.U. after    1 cycles

  Exact polarizability:  87.963  -0.643  65.012  -0.544  -0.213  30.102
 Approx polarizability: 127.259  -1.937 138.919   0.129  -1.053  48.411

                      1                      2                      3
                      A                      A                      A
 Frequencies --     45.5723               172.0869               204.3687
 Red. masses --     10.0616                 6.4576                 7.2976
 Frc consts  --      0.0123                 0.1127                 0.1796
 IR Inten    --      0.2807                 3.9345                 1.0834

                      4                      5                      6
                      A                      A                      A
 Frequencies --    276.1318               348.8709               388.6416
 Red. masses --      1.0702                 7.0213                 4.9238
 Frc consts  --      0.0481                 0.5035                 0.4382
 IR Inten    --     43.0086                 7.8020                 1.4033

                      7                      8                      9
                      A                      A                      A
 Frequencies --    431.5547               502.3857               561.8165
 Red. masses --      7.7701                 1.3616                 7.3263
 Frc consts  --      0.8526                 0.2025                 1.3625
 IR Inten    --      1.2733                45.9736                 7.0002

                     10                     11                     12
                      A                      A                      A
 Frequencies --    605.4927               666.4545               745.8751
 Red. masses --      1.3571                 6.7451                 6.1100
 Frc consts  --      0.2931                 1.7651                 2.0027
 IR Inten    --    308.3346                32.3750                 8.9072

                     13                     14                     15
                      A                      A                      A
 Frequencies --    761.3330               808.9355               854.8765
 Red. masses --      5.0937                13.2364                13.6382
 Frc consts  --      1.7395                 5.1032                 5.8724
 IR Inten    --     20.0918                 0.0193                57.4426

                     16                     17                     18
                      A                      A                      A
 Frequencies --   1017.4875              1048.9982              1116.5091
 Red. masses --      9.1014                 2.4450                 2.2430
 Frc consts  --      5.5516                 1.5852                 1.6474
 IR Inten    --      3.6636                 5.1617                21.0602

                     19                     20                     21
                      A                      A                      A
 Frequencies --   1167.5828              1343.9630              1356.1102
 Red. masses --      5.9213                 2.4681                 4.1815
 Frc consts  --      4.7560                 2.6266                 4.5308
 IR Inten    --     17.2448                31.5520                79.6385

                     22                     23                     24
                      A                      A                      A
 Frequencies --   1416.8622              1463.2254              1548.5471
 Red. masses --      9.4080                 4.2348                 8.7331
 Frc consts  --     11.1277                 5.3420                12.3386
 IR Inten    --    105.0475                22.6372               117.9109

                     25                     26                     27
                      A                      A                      A
 Frequencies --   1609.6792              1657.3328              1670.2340
 Red. masses --      1.6055                11.9513                 2.3743
 Frc consts  --      2.4509                19.3413                 3.9025
 IR Inten    --     49.2125               180.5487               321.3705

                     28                     29                     30
                      A                      A                      A
 Frequencies --   3571.2430              3656.4031              3673.0308
 Red. masses --      1.0472                 1.0816                 1.0988
 Frc consts  --      7.8690                 8.5200                 8.7338
 IR Inten    --     51.4847                83.1464                40.2918

 - Thermochemistry -
 -------------------
 Temperature   298.150 Kelvin.  Pressure   1.00000 Atm.
 Atom     1 has atomic number  6 and mass  12.00000

 Molecular mass:   129.02867 amu.
 Principal axes and moments of inertia in atomic units:
                           1         2         3
     Eigenvalues --   388.514611566.998611953.57987
           X            0.99998  -0.00538  -0.00415
           Y            0.00540   0.99998   0.00352
           Z            0.00413  -0.00354   0.99999
 This molecule is an asymmetric top.
 Rotational symmetry number  1.
 Rotational temperatures (Kelvin)      0.22294     0.05527     0.04434
 Rotational constants (GHZ):           4.64523     1.15172     0.92381
 Zero-point vibrational energy     207501.9 (Joules/Mol)
                                   49.59414 (Kcal/Mol)
 Warning -- explicit consideration of  10 degrees of freedom as
           vibrations may cause significant error
 Vibrational temperatures:     65.57   247.59   294.04   397.29   501.95
          (Kelvin)            559.17   620.91   722.82   808.33   871.17
                              958.88  1073.15  1095.39  1163.88  1229.98
                             1463.94  1509.27  1606.41  1679.89  1933.66
                             1951.14  2038.55  2105.25  2228.01  2315.97
                             2384.53  2403.09  5138.22  5260.74  5284.67

 Zero-point correction=                           0.079033 (Hartree/Particle)
 Thermal correction to Energy=                    0.086448
 Thermal correction to Enthalpy=                  0.087392
 Thermal correction to Gibbs Free Energy=         0.046371
 Sum of electronic and zero-point Energies=           -502.057647
 Sum of electronic and thermal Energies=              -502.050232
 Sum of electronic and thermal Enthalpies=            -502.049288
 Sum of electronic and thermal Free Energies=         -502.090309

                     E (Thermal)             CV                S
                      KCal/Mol        Cal/Mol-Kelvin    Cal/Mol-Kelvin
 Total                   54.247             26.589             86.337
 Electronic               0.000              0.000              0.000
 Translational            0.889              2.981             40.478
 Rotational               0.889              2.981             28.566
 Vibrational             52.469             20.627             17.293
 Vibration     1          0.595              1.979              5.001
 Vibration     2          0.626              1.877              2.413
 Vibration     3          0.640              1.834              2.093
 Vibration     4          0.678              1.718              1.558
 Vibration     5          0.726              1.578              1.171
 Vibration     6          0.757              1.494              1.005
 Vibration     7          0.793              1.402              0.854
 Vibration     8          0.858              1.245              0.652
 Vibration     9          0.918              1.114              0.520
 Vibration    10          0.964              1.020              0.440

 Normal termination of Gaussian 09 at Wed Aug 25 17:49:25 2021.

 -----------------------------------------------------------------
 #P Geom=AllCheck Guess=TCheck SCRF=Check CCSD(T,E4T,FrzG4)/GTBas1
 -----------------------------------------------------------------

 Structure from the checkpoint file:  "/public/home/users/caep010/.cache/gau_scr/Gau-55802.chk"
 ------
 JOWWIB
 ------
 Charge =  0 Multiplicity = 1

 SCF Done:  E(RHF) =  -499.292446487     A.U. after   15 cycles
 E2 =    -0.1443578265D+01 EUMP2 =    -0.50073602475281D+03
 CCSD(T)
 CCSD(T)= -0.50080096829D+03
 500.7394223\CCSD(T)=-500.8009683\RMSD=7.464e-09\PG=C01 [X(C2H3N5O2)]\\
 Normal termination of Gaussian 09 at Wed Aug 25 17:58:25 2021.

 ---------------------------------------------------------
 #P Geom=AllCheck Guess=TCheck SCRF=Check MP4=FrzG4/GTBas2
 ---------------------------------------------------------

 Structure from the checkpoint file:  "/public/home/users/caep010/.cache/gau_scr/Gau-55802.chk"
 ------
 JOWWIB
 ------
 Charge =  0 Multiplicity = 1

 SCF Done:  E(RHF) =  -499.307991627     A.U. after   13 cycles
 E2 =    -0.1464264414D+01 EUMP2 =    -0.50077225604142D+03
 Normal termination of Gaussian 09 at Wed Aug 25 18:01:11 2021.

 ---------------------------------------------------------
 #P Geom=AllCheck Guess=TCheck SCRF=Check MP4=FrzG4/GTBas3
 ---------------------------------------------------------

 Structure from the checkpoint file:  "/public/home/users/caep010/.cache/gau_scr/Gau-55802.chk"
 ------
 JOWWIB
 ------
 Charge =  0 Multiplicity = 1

 SCF Done:  E(RHF) =  -499.349303907     A.U. after   13 cycles
 E2 =    -0.1709411917D+01 EUMP2 =    -0.50105871582416D+03
 Normal termination of Gaussian 09 at Wed Aug 25 18:20:18 2021.

 -----------------------------------------------------------
 #P Geom=AllCheck Guess=TCheck SCRF=Check MP2=Full/GTLargeXP
 -----------------------------------------------------------

 Structure from the checkpoint file:  "/public/home/users/caep010/.cache/gau_scr/Gau-55802.chk"
 ------
 JOWWIB
 ------
 Charge =  0 Multiplicity = 1

 SCF Done:  E(RHF) =  -499.479994519     A.U. after   13 cycles
 E2 =    -0.2219405454D+01 EUMP2 =    -0.50169939997316D+03
 Normal termination of Gaussian 09 at Wed Aug 25 18:25:45 2021.
 SCF Done:  E(RHF) =  -499.519188741     A.U. after    9 cycles
 Normal termination of Gaussian 09 at Wed Aug 25 18:29:50 2021.

                         Standard orientation:
 ---------------------------------------------------------------------
 Center     Atomic      Atomic             Coordinates (Angstroms)
 Number     Number       Type             X           Y           Z
 ---------------------------------------------------------------------
      1          6           0       -0.389995    0.105615    0.001711
      2          7           0        0.036002    1.348477    0.006733
      3          7           0        1.380915    1.151083    0.011096
      4          6           0        1.666064   -0.178333    0.002651
      5          7           0        0.542862   -0.874496   -0.006052
      6          7           0       -1.822084   -0.188753   -0.003188
      7          7           0        2.934053   -0.694852    0.068346
      8          8           0       -2.583621    0.765670   -0.020184
      9          8           0       -2.136762   -1.367834    0.010376
     10          1           0        1.998480    1.945604    0.056233
     11          1           0        2.953973   -1.689310   -0.108989
     12          1           0        3.651959   -0.192887   -0.433492
 ---------------------------------------------------------------------

 SCF Done:  E(RHF) =  -499.526973913     A.U. after    8 cycles

 The electronic state is 1-A.
 Alpha  occ. eigenvalues --  -20.60374 -20.60074 -15.85702 -15.68004 -15.63716
 Alpha  occ. eigenvalues --  -15.62345 -15.58674 -11.39548 -11.36779  -1.61001
 Alpha  occ. eigenvalues --   -1.45685  -1.40344  -1.28526  -1.23491  -1.14370
 Alpha  occ. eigenvalues --   -1.02040  -0.88948  -0.83696  -0.80652  -0.74174
 Alpha  occ. eigenvalues --   -0.73334  -0.73167  -0.70983  -0.68849  -0.66999
 Alpha  occ. eigenvalues --   -0.54993  -0.53576  -0.50503  -0.50130  -0.48323
 Alpha  occ. eigenvalues --   -0.46083  -0.44996  -0.37899
 Alpha virt. eigenvalues --    0.01442   0.03606   0.04491   0.04957   0.05329
 Alpha virt. eigenvalues --    0.06972   0.07289   0.07707   0.08832   0.10275
 Alpha virt. eigenvalues --    0.10543   0.10968   0.11077   0.11787   0.13005

 Mulliken charges:
               1
     1  C    0.414928
     2  N   -0.311700
     3  N   -0.272025
     4  C    0.547937
     5  N   -0.490161
     6  N    0.495762
     7  N   -0.685478
     8  O   -0.380372
     9  O   -0.370565
    10  H    0.379916
    11  H    0.351812
    12  H    0.319948
 Sum of Mulliken charges =  -0.00000

 Dipole moment (field-independent basis, Debye):
    X=              8.2827    Y=              1.2504    Z=             -0.9437  Tot=              8.4295
 Quadrupole moment (field-independent basis, Debye-Ang):
   XX=            -43.9950   YY=            -52.6368   ZZ=            -50.4588
   XY=              2.0732   XZ=             -3.9129   YZ=              0.7839

 Normal termination of Gaussian 09 at Wed Aug 25 18:44:31 2021.
