 Gaussian 09, Revision E.01,
 Gaussian 09:  ES64L-G09RevE.01 30-Nov-2015

 ----------------
 #P G4 OPT=calcfc
 ----------------

 ------
 JEJZAA
 ------
 Symbolic Z-matrix:
 Charge =  0 Multiplicity = 1

 SCF Done:  E(RB3LYP) =  -583.303886556     A.U. after   17 cycles
 SCF Done:  E(RB3LYP) =  -583.320813004     A.U. after   16 cycles
 SCF Done:  E(RB3LYP) =  -583.321873073     A.U. after   17 cycles
 SCF Done:  E(RB3LYP) =  -583.320991469     A.U. after   17 cycles
 SCF Done:  E(RB3LYP) =  -583.321835929     A.U. after   12 cycles
 SCF Done:  E(RB3LYP) =  -583.321875181     A.U. after   10 cycles
 SCF Done:  E(RB3LYP) =  -583.322209823     A.U. after   15 cycles
 SCF Done:  E(RB3LYP) =  -583.322369393     A.U. after   13 cycles
 SCF Done:  E(RB3LYP) =  -583.194035029     A.U. after   17 cycles
 SCF Done:  E(RB3LYP) =  -583.322396655     A.U. after   13 cycles
 SCF Done:  E(RB3LYP) =  -583.322813165     A.U. after   13 cycles
 SCF Done:  E(RB3LYP) =  -583.322815874     A.U. after   10 cycles
 SCF Done:  E(RB3LYP) =  -583.322815981     A.U. after    9 cycles
 Optimization completed.
    -- Stationary point found.
 Normal termination of Gaussian 09 at Thu Aug 26 05:27:31 2021.

 ----------------------------------------------------------
 #P Geom=AllCheck Guess=TCheck SCRF=Check B3LYP/GTBas3 Freq
 ----------------------------------------------------------

 Structure from the checkpoint file:  "/public/home/users/caep010/.cache/gau_scr/Gau-2316.chk"
 ------
 JEJZAA
 ------
 Charge =  0 Multiplicity = 1

 SCF Done:  E(RB3LYP) =  -583.322815981     A.U. after    1 cycles

  Exact polarizability: 153.516   4.758  87.941   3.440  -1.889  41.220
 Approx polarizability: 291.757  21.637 164.614  12.647   0.120  69.951

                      1                      2                      3
                      A                      A                      A
 Frequencies --     43.4152                73.1231               124.6328
 Red. masses --      6.4214                11.8115                 8.4059
 Frc consts  --      0.0071                 0.0372                 0.0769
 IR Inten    --      3.6322                 1.0264                 5.7750

                      4                      5                      6
                      A                      A                      A
 Frequencies --    194.5866               327.7006               364.7754
 Red. masses --      9.1278                 7.7060                 8.3176
 Frc consts  --      0.2036                 0.4876                 0.6521
 IR Inten    --      6.6710                 0.9134                 1.7832

                      7                      8                      9
                      A                      A                      A
 Frequencies --    386.3532               430.7661               493.9506
 Red. masses --      9.3610                 3.1981                 5.6604
 Frc consts  --      0.8233                 0.3496                 0.8137
 IR Inten    --      1.7243                 0.4581                 7.2019

                     10                     11                     12
                      A                      A                      A
 Frequencies --    535.4246               562.4017               609.5855
 Red. masses --      2.4190                 1.3469                 7.9212
 Frc consts  --      0.4086                 0.2510                 1.7342
 IR Inten    --      3.8500                95.7599                27.4612

                     13                     14                     15
                      A                      A                      A
 Frequencies --    666.4599               726.9211               767.2565
 Red. masses --      5.9235                 3.8929                11.1822
 Frc consts  --      1.5502                 1.2120                 3.8785
 IR Inten    --      6.3935                 2.2221                 9.0454

                     16                     17                     18
                      A                      A                      A
 Frequencies --    783.5700               830.9124               856.6144
 Red. masses --      6.7249                 1.2730                 3.6015
 Frc consts  --      2.4327                 0.5178                 1.5571
 IR Inten    --     29.8220                 4.5742                19.0769

                     19                     20                     21
                      A                      A                      A
 Frequencies --    868.9892               905.8307               941.0075
 Red. masses --      2.0825                 4.3952                 1.3330
 Frc consts  --      0.9266                 2.1248                 0.6955
 IR Inten    --     37.3257                 1.2881                 0.0112

                     22                     23                     24
                      A                      A                      A
 Frequencies --    962.0639              1011.9617              1041.3424
 Red. masses --      1.3325                 6.2720                 2.5492
 Frc consts  --      0.7267                 3.7843                 1.6287
 IR Inten    --      1.7913               138.1336                 2.9514

                     25                     26                     27
                      A                      A                      A
 Frequencies --   1117.7168              1196.1261              1247.1578
 Red. masses --      1.4002                 1.1312                 2.5846
 Frc consts  --      1.0306                 0.9535                 2.3686
 IR Inten    --      7.6544                22.4359                44.7886

                     28                     29                     30
                      A                      A                      A
 Frequencies --   1278.2301              1318.3654              1359.7758
 Red. masses --      4.2277                 1.5098                 6.5064
 Frc consts  --      4.0698                 1.5461                 7.0880
 IR Inten    --     85.4724                86.2366               555.4105

                     31                     32                     33
                      A                      A                      A
 Frequencies --   1377.3907              1419.7972              1504.1295
 Red. masses --      5.3772                 1.8098                 2.9935
 Frc consts  --      6.0107                 2.1494                 3.9902
 IR Inten    --     33.9938                42.0663                13.1800

                     34                     35                     36
                      A                      A                      A
 Frequencies --   1519.9932              1572.2589              1673.9012
 Red. masses --      2.8382                 6.5931                 5.8819
 Frc consts  --      3.8635                 9.6025                 9.7102
 IR Inten    --    179.6659                 1.1866                19.5370

                     37                     38                     39
                      A                      A                      A
 Frequencies --   1702.5808              3190.2688              3246.8289
 Red. masses --      6.0256                 1.0904                 1.0889
 Frc consts  --     10.2912                 6.5384                 6.7634
 IR Inten    --    250.3595                 3.2557                 0.1266

                     40                     41                     42
                      A                      A                      A
 Frequencies --   3252.8655              3259.3904              3608.7791
 Red. masses --      1.0937                 1.0959                 1.0772
 Frc consts  --      6.8185                 6.8597                 8.2655
 IR Inten    --      0.8176                 1.6535                49.8737

 - Thermochemistry -
 -------------------
 Temperature   298.150 Kelvin.  Pressure   1.00000 Atm.
 Atom     1 has atomic number  8 and mass  15.99491

 Molecular mass:   155.03309 amu.
 Principal axes and moments of inertia in atomic units:
                           1         2         3
     Eigenvalues --   478.361143131.685113527.89368
           X            1.00000   0.00139   0.00185
           Y           -0.00136   0.99983  -0.01815
           Z           -0.00187   0.01815   0.99983
 This molecule is an asymmetric top.
 Rotational symmetry number  1.
 Warning -- assumption of classical behavior for rotation
           may cause significant error
 Rotational temperatures (Kelvin)      0.18106     0.02766     0.02455
 Rotational constants (GHZ):           3.77276     0.57628     0.51156
 Zero-point vibrational energy     295209.7 (Joules/Mol)
                                   70.55680 (Kcal/Mol)
 Warning -- explicit consideration of  12 degrees of freedom as
           vibrations may cause significant error
 Vibrational temperatures:     62.46   105.21   179.32   279.97   471.49
          (Kelvin)            524.83   555.88   619.78   710.68   770.36
                              809.17   877.06   958.89  1045.88  1103.91
                             1127.38  1195.50  1232.48  1250.28  1303.29
                             1353.90  1384.19  1455.99  1498.26  1608.14
                             1720.96  1794.38  1839.09  1896.83  1956.41
                             1981.76  2042.77  2164.10  2186.93  2262.13
                             2408.37  2449.63  4590.08  4671.46  4680.14
                             4689.53  5192.22

 Zero-point correction=                           0.112439 (Hartree/Particle)
 Thermal correction to Energy=                    0.121187
 Thermal correction to Enthalpy=                  0.122131
 Thermal correction to Gibbs Free Energy=         0.077325
 Sum of electronic and zero-point Energies=           -583.210377
 Sum of electronic and thermal Energies=              -583.201629
 Sum of electronic and thermal Enthalpies=            -583.200685
 Sum of electronic and thermal Free Energies=         -583.245491

                     E (Thermal)             CV                S
                      KCal/Mol        Cal/Mol-Kelvin    Cal/Mol-Kelvin
 Total                   76.046             32.693             94.302
 Electronic               0.000              0.000              0.000
 Translational            0.889              2.981             41.025
 Rotational               0.889              2.981             30.048
 Vibrational             74.269             26.731             23.229
 Vibration     1          0.595              1.980              5.097
 Vibration     2          0.599              1.967              4.067
 Vibration     3          0.610              1.928              3.027
 Vibration     4          0.635              1.847              2.184
 Vibration     5          0.711              1.620              1.271
 Vibration     6          0.738              1.545              1.102
 Vibration     7          0.755              1.499              1.014
 Vibration     8          0.792              1.403              0.856
 Vibration     9          0.850              1.263              0.673
 Vibration    10          0.890              1.172              0.575
 Vibration    11          0.918              1.113              0.519
 Vibration    12          0.969              1.012              0.433

 Optimization completed.
    -- Stationary point found.
 Normal termination of Gaussian 09 at Thu Aug 26 05:29:10 2021.

 -----------------------------------------------------------------
 #P Geom=AllCheck Guess=TCheck SCRF=Check CCSD(T,E4T,FrzG4)/GTBas1
 -----------------------------------------------------------------

 Structure from the checkpoint file:  "/public/home/users/caep010/.cache/gau_scr/Gau-2316.chk"
 ------
 JEJZAA
 ------
 Charge =  0 Multiplicity = 1

 SCF Done:  E(RHF) =  -579.938887030     A.U. after   15 cycles
 E2 =    -0.1692768854D+01 EUMP2 =    -0.58163165588436D+03
 CCSD(T)
 CCSD(T)= -0.58172090809D+03
 .7399149\MP4SDQ=-581.6490503\CCSD=-581.6439601\CCSD(T)=-581.7209081\RM
 Normal termination of Gaussian 09 at Thu Aug 26 06:13:15 2021.

 ---------------------------------------------------------
 #P Geom=AllCheck Guess=TCheck SCRF=Check MP4=FrzG4/GTBas2
 ---------------------------------------------------------

 Structure from the checkpoint file:  "/public/home/users/caep010/.cache/gau_scr/Gau-2316.chk"
 ------
 JEJZAA
 ------
 Charge =  0 Multiplicity = 1

 SCF Done:  E(RHF) =  -579.958186215     A.U. after   16 cycles
 E2 =    -0.1715854534D+01 EUMP2 =    -0.58167404074901D+03
 Normal termination of Gaussian 09 at Thu Aug 26 06:26:58 2021.

 ---------------------------------------------------------
 #P Geom=AllCheck Guess=TCheck SCRF=Check MP4=FrzG4/GTBas3
 ---------------------------------------------------------

 Structure from the checkpoint file:  "/public/home/users/caep010/.cache/gau_scr/Gau-2316.chk"
 ------
 JEJZAA
 ------
 Charge =  0 Multiplicity = 1

 SCF Done:  E(RHF) =  -580.000526158     A.U. after   13 cycles
 E2 =    -0.2016485272D+01 EUMP2 =    -0.58201701143077D+03
 Normal termination of Gaussian 09 at Thu Aug 26 07:45:24 2021.

 -----------------------------------------------------------
 #P Geom=AllCheck Guess=TCheck SCRF=Check MP2=Full/GTLargeXP
 -----------------------------------------------------------

 Structure from the checkpoint file:  "/public/home/users/caep010/.cache/gau_scr/Gau-2316.chk"
 ------
 JEJZAA
 ------
 Charge =  0 Multiplicity = 1

 SCF Done:  E(RHF) =  -580.148883565     A.U. after   16 cycles
 E2 =    -0.2628937935D+01 EUMP2 =    -0.58277782150042D+03
 Normal termination of Gaussian 09 at Thu Aug 26 07:57:44 2021.
 SCF Done:  E(RHF) =  -580.195887963     A.U. after   11 cycles
 Normal termination of Gaussian 09 at Thu Aug 26 08:02:08 2021.

                         Standard orientation:
 ---------------------------------------------------------------------
 Center     Atomic      Atomic             Coordinates (Angstroms)
 Number     Number       Type             X           Y           Z
 ---------------------------------------------------------------------
      1          8           0       -3.786187   -0.304941   -0.211669
      2          7           0       -2.542600   -0.107368   -0.070425
      3          6           0       -2.009443    1.149606   -0.184405
      4          1           0       -2.740054    1.915068   -0.401293
      5          6           0       -0.658346    1.376365   -0.045628
      6          1           0       -0.291612    2.390778   -0.160628
      7          6           0        0.214849    0.323305    0.237861
      8          6           0       -0.333745   -0.955646    0.372817
      9          1           0        0.291320   -1.806612    0.597522
     10          6           0       -1.686755   -1.143836    0.204675
     11          1           0       -2.180887   -2.101183    0.284614
     12          7           0        1.576312    0.610683    0.456633
     13          7           0        2.619520   -0.132787   -0.099922
     14          1           0        1.866223    1.578250    0.498359
     15          8           0        2.381922   -1.273619   -0.452713
     16          8           0        3.694643    0.444964   -0.127431
 ---------------------------------------------------------------------

 SCF Done:  E(RHF) =  -580.205003729     A.U. after    8 cycles

 The electronic state is 1-A.
 Alpha  occ. eigenvalues --  -20.62825 -20.62504 -20.51702 -15.91559 -15.74461
 Alpha  occ. eigenvalues --  -15.68610 -11.34256 -11.31587 -11.31333 -11.29387
 Alpha  occ. eigenvalues --  -11.28648  -1.65370  -1.46561  -1.43928  -1.32773
 Alpha  occ. eigenvalues --   -1.22071  -1.10278  -1.09134  -0.96742  -0.92998
 Alpha  occ. eigenvalues --   -0.88145  -0.81537  -0.79950  -0.77527  -0.74378
 Alpha  occ. eigenvalues --   -0.72696  -0.70742  -0.67140  -0.65778  -0.64764
 Alpha  occ. eigenvalues --   -0.60736  -0.58459  -0.55903  -0.53841  -0.52510
 Alpha  occ. eigenvalues --   -0.49108  -0.46694  -0.43438  -0.40080  -0.32796
 Alpha virt. eigenvalues --    0.02145   0.03605   0.03897   0.04328   0.04914
 Alpha virt. eigenvalues --    0.05776   0.06400   0.06789   0.06980   0.07551
 Alpha virt. eigenvalues --    0.07604   0.08336   0.08973   0.09055   0.09878

 Mulliken charges:
               1
     1  O   -0.654545
     2  N    0.164081
     3  C   -0.100667
     4  H    0.255570
     5  C   -0.206103
     6  H    0.200710
     7  C    0.294059
     8  C   -0.147362
     9  H    0.248443
    10  C   -0.095224
    11  H    0.258350
    12  N   -0.364676
    13  N    0.615048
    14  H    0.367802
    15  O   -0.403973
    16  O   -0.431514
 Sum of Mulliken charges =  -0.00000

 Dipole moment (field-independent basis, Debye):
    X=              1.6884    Y=              2.8561    Z=              1.2754  Tot=              3.5545
 Quadrupole moment (field-independent basis, Debye-Ang):
   XX=            -98.1989   YY=            -52.5908   ZZ=            -64.2948
   XY=              0.4974   XZ=              1.0185   YZ=             -2.4076

 Normal termination of Gaussian 09 at Thu Aug 26 08:30:10 2021.
