 Gaussian 09, Revision E.01,
 Gaussian 09:  ES64L-G09RevE.01 30-Nov-2015

 ----------------
 #P G4 OPT=calcfc
 ----------------

 --------
 KAVFUI01
 --------
 Symbolic Z-matrix:
 Charge =  0 Multiplicity = 1

 SCF Done:  E(RB3LYP) =  -635.178101338     A.U. after   16 cycles
 SCF Done:  E(RB3LYP) =  -635.215915459     A.U. after   14 cycles
 SCF Done:  E(RB3LYP) =  -635.219944387     A.U. after   16 cycles
 SCF Done:  E(RB3LYP) =  -635.220515329     A.U. after   14 cycles
 SCF Done:  E(RB3LYP) =  -635.220530045     A.U. after    9 cycles
 Optimization completed.
    -- Stationary point found.
 Normal termination of Gaussian 09 at Wed Aug 25 23:34:51 2021.

 ----------------------------------------------------------
 #P Geom=AllCheck Guess=TCheck SCRF=Check B3LYP/GTBas3 Freq
 ----------------------------------------------------------

 Structure from the checkpoint file:  "/public/home/users/caep010/.cache/gau_scr/Gau-3638.chk"
 --------
 KAVFUI01
 --------
 Charge =  0 Multiplicity = 1

 SCF Done:  E(RB3LYP) =  -635.220530045     A.U. after    2 cycles

  Exact polarizability: 109.979   1.026  80.720  -0.002  -0.000  33.945
 Approx polarizability: 170.346   8.975 178.194  -0.011   0.006  55.464

                      1                      2                      3
                      A                      A                      A
 Frequencies --     59.8450                82.4202               132.8238
 Red. masses --     14.6781                13.1731                 6.7509
 Frc consts  --      0.0310                 0.0527                 0.0702
 IR Inten    --      0.1824                 1.1865                 6.5823

                      4                      5                      6
                      A                      A                      A
 Frequencies --    148.7171               252.4622               282.6474
 Red. masses --     13.4630                 8.6965                 8.7347
 Frc consts  --      0.1754                 0.3266                 0.4111
 IR Inten    --      3.2844                 0.1251                 2.5791

                      7                      8                      9
                      A                      A                      A
 Frequencies --    337.8166               496.4090               534.5595
 Red. masses --     14.7848                10.0765                12.2791
 Frc consts  --      0.9941                 1.4630                 2.0673
 IR Inten    --      3.9141                 1.3377                 0.4389

                     10                     11                     12
                      A                      A                      A
 Frequencies --    587.5636               609.9162               658.8949
 Red. masses --      3.4970                 5.8847                 5.4552
 Frc consts  --      0.7113                 1.2898                 1.3954
 IR Inten    --      4.1032                 3.9000                13.4539

                     13                     14                     15
                      A                      A                      A
 Frequencies --    768.8499               773.6826               818.3453
 Red. masses --      2.3876                 8.1523                 2.3555
 Frc consts  --      0.8316                 2.8751                 0.9294
 IR Inten    --      8.0738                20.7520                 0.8029

                     16                     17                     18
                      A                      A                      A
 Frequencies --    833.6990               835.0936               867.8596
 Red. masses --     13.0398                11.8294                 1.5192
 Frc consts  --      5.3400                 4.8605                 0.6742
 IR Inten    --     41.9554               129.8967                21.7714

                     19                     20                     21
                      A                      A                      A
 Frequencies --    976.7372              1021.7825              1061.5226
 Red. masses --      4.8398                 6.2005                 1.9781
 Frc consts  --      2.7204                 3.8141                 1.3133
 IR Inten    --      8.6706                10.2681               243.8180

                     22                     23                     24
                      A                      A                      A
 Frequencies --   1211.0007              1264.1946              1334.8101
 Red. masses --      1.6213                 3.5897                 8.3935
 Frc consts  --      1.4009                 3.3801                 8.8111
 IR Inten    --     91.9107               163.1701               166.7194

                     25                     26                     27
                      A                      A                      A
 Frequencies --   1357.6473              1383.3070              1410.8902
 Red. masses --     10.8988                 5.5060                 8.9993
 Frc consts  --     11.8359                 6.2076                10.5547
 IR Inten    --    191.4192                 6.7893               131.9856

                     28                     29                     30
                      A                      A                      A
 Frequencies --   1524.2582              1568.8423              1651.1647
 Red. masses --      5.9145                 7.6202                14.1500
 Frc consts  --      8.0962                11.0504                22.7293
 IR Inten    --     30.6929                14.1864               208.1603

                     31                     32                     33
                      A                      A                      A
 Frequencies --   1730.8192              3299.8979              3330.9418
 Red. masses --     14.3603                 1.0986                 1.1008
 Frc consts  --     25.3464                 7.0483                 7.1959
 IR Inten    --    270.7362                12.1403                28.7768

 - Thermochemistry -
 -------------------
 Temperature   298.150 Kelvin.  Pressure   1.00000 Atm.
 Atom     1 has atomic number  7 and mass  14.00307

 Molecular mass:   158.00760 amu.
 Principal axes and moments of inertia in atomic units:
                           1         2         3
     Eigenvalues --   547.334652782.977703330.31219
           X            0.99999  -0.00450   0.00000
           Y            0.00450   0.99999  -0.00001
           Z           -0.00000   0.00001   1.00000
 This molecule is an asymmetric top.
 Rotational symmetry number  1.
 Warning -- assumption of classical behavior for rotation
           may cause significant error
 Rotational temperatures (Kelvin)      0.15825     0.03112     0.02601
 Rotational constants (GHZ):           3.29733     0.64849     0.54191
 Zero-point vibrational energy     198636.5 (Joules/Mol)
                                   47.47525 (Kcal/Mol)
 Warning -- explicit consideration of  11 degrees of freedom as
           vibrations may cause significant error
 Vibrational temperatures:     86.10   118.58   191.10   213.97   363.24
          (Kelvin)            406.67   486.04   714.22   769.11   845.37
                              877.53   948.00  1106.20  1113.16  1177.41
                             1199.51  1201.51  1248.65  1405.31  1470.12
                             1527.29  1742.36  1818.89  1920.49  1953.35
                             1990.27  2029.95  2193.06  2257.21  2375.65
                             2490.26  4747.81  4792.48

 Zero-point correction=                           0.075657 (Hartree/Particle)
 Thermal correction to Energy=                    0.084195
 Thermal correction to Enthalpy=                  0.085139
 Thermal correction to Gibbs Free Energy=         0.040686
 Sum of electronic and zero-point Energies=           -635.144873
 Sum of electronic and thermal Energies=              -635.136335
 Sum of electronic and thermal Enthalpies=            -635.135391
 Sum of electronic and thermal Free Energies=         -635.179844

                     E (Thermal)             CV                S
                      KCal/Mol        Cal/Mol-Kelvin    Cal/Mol-Kelvin
 Total                   52.833             30.061             93.559
 Electronic               0.000              0.000              0.000
 Translational            0.889              2.981             41.082
 Rotational               0.889              2.981             30.007
 Vibrational             51.056             24.099             22.471
 Vibration     1          0.597              1.973              4.462
 Vibration     2          0.600              1.961              3.832
 Vibration     3          0.613              1.921              2.905
 Vibration     4          0.618              1.904              2.689
 Vibration     5          0.664              1.759              1.713
 Vibration     6          0.682              1.706              1.518
 Vibration     7          0.718              1.600              1.222
 Vibration     8          0.852              1.258              0.667
 Vibration     9          0.890              1.174              0.577
 Vibration    10          0.945              1.058              0.472
 Vibration    11          0.969              1.011              0.433

 Optimization completed.
    -- Stationary point found.
 Normal termination of Gaussian 09 at Wed Aug 25 23:36:19 2021.

 -----------------------------------------------------------------
 #P Geom=AllCheck Guess=TCheck SCRF=Check CCSD(T,E4T,FrzG4)/GTBas1
 -----------------------------------------------------------------

 Structure from the checkpoint file:  "/public/home/users/caep010/.cache/gau_scr/Gau-3638.chk"
 --------
 KAVFUI01
 --------
 Charge =  0 Multiplicity = 1

 SCF Done:  E(RHF) =  -631.699125924     A.U. after   15 cycles
 E2 =    -0.1790514234D+01 EUMP2 =    -0.63348964015815D+03
 CCSD(T)
 CCSD(T)= -0.63356048315D+03
 .5866391\MP4SDQ=-633.4881832\CCSD=-633.4788872\CCSD(T)=-633.5604831\RM
 Normal termination of Gaussian 09 at Thu Aug 26 00:03:58 2021.

 ---------------------------------------------------------
 #P Geom=AllCheck Guess=TCheck SCRF=Check MP4=FrzG4/GTBas2
 ---------------------------------------------------------

 Structure from the checkpoint file:  "/public/home/users/caep010/.cache/gau_scr/Gau-3638.chk"
 --------
 KAVFUI01
 --------
 Charge =  0 Multiplicity = 1

 SCF Done:  E(RHF) =  -631.716961211     A.U. after   14 cycles
 E2 =    -0.1813525403D+01 EUMP2 =    -0.63353048661427D+03
 Normal termination of Gaussian 09 at Thu Aug 26 00:15:57 2021.

 ---------------------------------------------------------
 #P Geom=AllCheck Guess=TCheck SCRF=Check MP4=FrzG4/GTBas3
 ---------------------------------------------------------

 Structure from the checkpoint file:  "/public/home/users/caep010/.cache/gau_scr/Gau-3638.chk"
 --------
 KAVFUI01
 --------
 Charge =  0 Multiplicity = 1

 SCF Done:  E(RHF) =  -631.764535594     A.U. after   13 cycles
 E2 =    -0.2121618833D+01 EUMP2 =    -0.63388615442740D+03
 Normal termination of Gaussian 09 at Thu Aug 26 01:14:07 2021.

 -----------------------------------------------------------
 #P Geom=AllCheck Guess=TCheck SCRF=Check MP2=Full/GTLargeXP
 -----------------------------------------------------------

 Structure from the checkpoint file:  "/public/home/users/caep010/.cache/gau_scr/Gau-3638.chk"
 --------
 KAVFUI01
 --------
 Charge =  0 Multiplicity = 1

 SCF Done:  E(RHF) =  -631.928938881     A.U. after   14 cycles
 E2 =    -0.2748171411D+01 EUMP2 =    -0.63467711029227D+03
 Normal termination of Gaussian 09 at Thu Aug 26 01:24:17 2021.
 SCF Done:  E(RHF) =  -631.980292564     A.U. after    9 cycles
 Normal termination of Gaussian 09 at Thu Aug 26 01:27:18 2021.

                         Standard orientation:
 ---------------------------------------------------------------------
 Center     Atomic      Atomic             Coordinates (Angstroms)
 Number     Number       Type             X           Y           Z
 ---------------------------------------------------------------------
      1          7           0       -2.468184    0.241880   -0.000048
      2          8           0       -3.308858   -0.638454    0.000155
      3          8           0       -2.678688    1.451256   -0.000269
      4          6           0       -1.071980   -0.152984   -0.000049
      5          7           0       -0.685745   -1.468752    0.000307
      6          6           0        0.615222   -1.441533    0.000246
      7          7           0        1.067600   -0.131370   -0.000118
      8          1           0        1.294687   -2.276818    0.000381
      9          7           0        2.439034    0.280153   -0.000006
     10          8           0        2.621924    1.473733    0.000750
     11          8           0        3.243600   -0.621890   -0.000674
     12          6           0       -0.018759    0.714724   -0.000272
     13          1           0        0.065657    1.785044   -0.000576
 ---------------------------------------------------------------------

 SCF Done:  E(RHF) =  -631.990278897     A.U. after    8 cycles

 The electronic state is 1-A.
 Alpha  occ. eigenvalues --  -20.67075 -20.66936 -20.62052 -20.61130 -15.95971
 Alpha  occ. eigenvalues --  -15.87251 -15.74148 -15.62559 -11.37608 -11.35931
 Alpha  occ. eigenvalues --  -11.35336  -1.69924  -1.62322  -1.48901  -1.43477
 Alpha  occ. eigenvalues --   -1.41725  -1.27831  -1.13010  -1.05878  -0.98394
 Alpha  occ. eigenvalues --   -0.87757  -0.85651  -0.84405  -0.81766  -0.79896
 Alpha  occ. eigenvalues --   -0.77377  -0.74232  -0.74208  -0.69583  -0.68167
 Alpha  occ. eigenvalues --   -0.66487  -0.58762  -0.56973  -0.52557  -0.51660
 Alpha  occ. eigenvalues --   -0.51580  -0.51011  -0.48805  -0.46770  -0.40321
 Alpha virt. eigenvalues --    0.00352   0.03237   0.03850   0.04284   0.04660
 Alpha virt. eigenvalues --    0.05210   0.06028   0.06900   0.07291   0.07368
 Alpha virt. eigenvalues --    0.08377   0.09109   0.09755   0.10866   0.10977

 Mulliken charges:
               1
     1  N    0.491256
     2  O   -0.361056
     3  O   -0.439488
     4  C    0.259297
     5  N   -0.423824
     6  C    0.072208
     7  N    0.050799
     8  H    0.279742
     9  N    0.650608
    10  O   -0.382897
    11  O   -0.375776
    12  C   -0.135928
    13  H    0.315059
 Sum of Mulliken charges =  -0.00000

 Dipole moment (field-independent basis, Debye):
    X=              3.7751    Y=             -0.3833    Z=             -0.0005  Tot=              3.7945
 Quadrupole moment (field-independent basis, Debye-Ang):
   XX=            -82.8085   YY=            -63.4674   ZZ=            -58.9148
   XY=             -3.2134   XZ=              0.0012   YZ=             -0.0027

 Normal termination of Gaussian 09 at Thu Aug 26 01:50:53 2021.
