 Gaussian 09, Revision E.01,
 Gaussian 09:  ES64L-G09RevE.01 30-Nov-2015

 ----------------
 #P G4 OPT=calcfc
 ----------------

 ------
 KAHHUY
 ------
 Symbolic Z-matrix:
 Charge =  0 Multiplicity = 1

 SCF Done:  E(RB3LYP) =  -690.515685830     A.U. after   16 cycles
 SCF Done:  E(RB3LYP) =  -690.583643001     A.U. after   14 cycles
 SCF Done:  E(RB3LYP) =  -690.592794566     A.U. after   15 cycles
 SCF Done:  E(RB3LYP) =  -690.593909384     A.U. after   15 cycles
 SCF Done:  E(RB3LYP) =  -690.594085072     A.U. after   13 cycles
 SCF Done:  E(RB3LYP) =  -690.592878104     A.U. after   14 cycles
 SCF Done:  E(RB3LYP) =  -690.594193656     A.U. after   11 cycles
 SCF Done:  E(RB3LYP) =  -690.594233419     A.U. after   11 cycles
 SCF Done:  E(RB3LYP) =  -690.594260885     A.U. after   13 cycles
 SCF Done:  E(RB3LYP) =  -690.594262593     A.U. after   10 cycles
 SCF Done:  E(RB3LYP) =  -690.594262746     A.U. after    9 cycles
 Optimization completed.
    -- Stationary point found.
 Normal termination of Gaussian 09 at Thu Aug 26 12:58:08 2021.

 ----------------------------------------------------------
 #P Geom=AllCheck Guess=TCheck SCRF=Check B3LYP/GTBas3 Freq
 ----------------------------------------------------------

 Structure from the checkpoint file:  "/public/home/users/caep010/.cache/gau_scr/Gau-132470.chk"
 ------
 KAHHUY
 ------
 Charge =  0 Multiplicity = 1

 SCF Done:  E(RB3LYP) =  -690.594262746     A.U. after    1 cycles

  Exact polarizability: 106.845   5.987  94.768  -3.705   3.074  45.200
 Approx polarizability: 183.624  10.181 177.350 -15.415  15.644  88.441

                      1                      2                      3
                      A                      A                      A
 Frequencies --     47.5749                88.0407               125.3722
 Red. masses --     14.4087                13.7865                 7.1754
 Frc consts  --      0.0192                 0.0630                 0.0665
 IR Inten    --      0.4083                 0.0358                 2.4374

                      4                      5                      6
                      A                      A                      A
 Frequencies --    169.3736               196.9860               252.1558
 Red. masses --     14.9265                 7.4321                 6.4719
 Frc consts  --      0.2523                 0.1699                 0.2425
 IR Inten    --      0.5609                 0.3866                 2.6976

                      7                      8                      9
                      A                      A                      A
 Frequencies --    300.1836               344.3163               356.9021
 Red. masses --      4.2367                 1.8944                 3.5416
 Frc consts  --      0.2249                 0.1323                 0.2658
 IR Inten    --     22.2736               104.4895                33.1183

                     10                     11                     12
                      A                      A                      A
 Frequencies --    388.2476               437.3480               471.7139
 Red. masses --      4.3053                 9.5600                 1.9794
 Frc consts  --      0.3824                 1.0774                 0.2595
 IR Inten    --     14.5715                 9.8454                36.9876

                     13                     14                     15
                      A                      A                      A
 Frequencies --    533.0917               580.4319               596.1019
 Red. masses --      2.7336                 1.2350                 4.4393
 Frc consts  --      0.4577                 0.2451                 0.9294
 IR Inten    --     46.2364               126.6641                20.5990

                     16                     17                     18
                      A                      A                      A
 Frequencies --    689.1038               709.3575               756.5402
 Red. masses --      5.2693                10.2700                 8.4652
 Frc consts  --      1.4742                 3.0447                 2.8547
 IR Inten    --     10.0518                 5.1973                10.6371

                     19                     20                     21
                      A                      A                      A
 Frequencies --    783.7266               795.7222               838.6102
 Red. masses --     10.9161                12.6012                12.9528
 Frc consts  --      3.9504                 4.7010                 5.3670
 IR Inten    --      9.7383                11.4913                51.1661

                     22                     23                     24
                      A                      A                      A
 Frequencies --    861.3074              1059.1459              1076.1823
 Red. masses --     13.6327                 4.0162                 2.0382
 Frc consts  --      5.9586                 2.6545                 1.3908
 IR Inten    --     37.8056                10.3611                15.5880

                     25                     26                     27
                      A                      A                      A
 Frequencies --   1151.4200              1229.6006              1359.4733
 Red. masses --      5.5194                 5.5128                 2.0233
 Frc consts  --      4.3113                 4.9108                 2.2032
 IR Inten    --      2.5533                16.7443               106.4074

                     28                     29                     30
                      A                      A                      A
 Frequencies --   1381.6276              1406.8072              1452.7005
 Red. masses --      9.3249                 7.2474                 5.4154
 Frc consts  --     10.4876                 8.4509                 6.7334
 IR Inten    --     83.8868               142.3788                42.7408

                     31                     32                     33
                      A                      A                      A
 Frequencies --   1490.3533              1562.1067              1565.7636
 Red. masses --      5.9421                 3.1977                 3.4936
 Frc consts  --      7.7762                 4.5974                 5.0463
 IR Inten    --     82.2580               175.1102                95.2235

                     34                     35                     36
                      A                      A                      A
 Frequencies --   1625.8841              1662.0000              1676.0510
 Red. masses --      2.5174                13.4591                 4.4727
 Frc consts  --      3.9209                21.9042                 7.4028
 IR Inten    --     97.1995               230.0491               395.7191

                     37                     38                     39
                      A                      A                      A
 Frequencies --   3535.3660              3664.5323              3683.1450
 Red. masses --      1.0496                 1.0813                 1.0979
 Frc consts  --      7.7295                 8.5549                 8.7754
 IR Inten    --     79.2129               105.6969                79.9019

 - Thermochemistry -
 -------------------
 Temperature   298.150 Kelvin.  Pressure   1.00000 Atm.
 Atom     1 has atomic number  6 and mass  12.00000

 Molecular mass:   173.01850 amu.
 Principal axes and moments of inertia in atomic units:
                           1         2         3
     Eigenvalues --  1244.239821994.871433057.94008
           X            0.99925   0.03870   0.00166
           Y           -0.03870   0.99925   0.00063
           Z           -0.00164  -0.00070   1.00000
 This molecule is an asymmetric top.
 Rotational symmetry number  1.
 Warning -- assumption of classical behavior for rotation
           may cause significant error
 Rotational temperatures (Kelvin)      0.06961     0.04342     0.02832
 Rotational constants (GHZ):           1.45048     0.90469     0.59018
 Zero-point vibrational energy     244662.5 (Joules/Mol)
                                   58.47573 (Kcal/Mol)
 Warning -- explicit consideration of  15 degrees of freedom as
           vibrations may cause significant error
 Vibrational temperatures:     68.45   126.67   180.38   243.69   283.42
          (Kelvin)            362.80   431.90   495.39   513.50   558.60
                              629.25   678.69   767.00   835.11   857.66
                              991.47  1020.61  1088.49  1127.61  1144.87
                             1206.57  1239.23  1523.87  1548.38  1656.63
                             1769.12  1955.98  1987.85  2024.08  2090.11
                             2144.28  2247.52  2252.78  2339.28  2391.24
                             2411.46  5086.60  5272.44  5299.22

 Zero-point correction=                           0.093187 (Hartree/Particle)
 Thermal correction to Energy=                    0.103234
 Thermal correction to Enthalpy=                  0.104178
 Thermal correction to Gibbs Free Energy=         0.056885
 Sum of electronic and zero-point Energies=           -690.501076
 Sum of electronic and thermal Energies=              -690.491029
 Sum of electronic and thermal Enthalpies=            -690.490085
 Sum of electronic and thermal Free Energies=         -690.537377

                     E (Thermal)             CV                S
                      KCal/Mol        Cal/Mol-Kelvin    Cal/Mol-Kelvin
 Total                   64.780             36.280             99.536
 Electronic               0.000              0.000              0.000
 Translational            0.889              2.981             41.352
 Rotational               0.889              2.981             30.407
 Vibrational             63.003             30.318             27.776
 Vibration     1          0.595              1.979              4.916
 Vibration     2          0.601              1.958              3.703
 Vibration     3          0.610              1.928              3.016
 Vibration     4          0.625              1.880              2.442
 Vibration     5          0.636              1.844              2.161
 Vibration     6          0.664              1.759              1.715
 Vibration     7          0.693              1.673              1.416
 Vibration     8          0.723              1.587              1.192
 Vibration     9          0.732              1.561              1.136
 Vibration    10          0.756              1.495              1.007
 Vibration    11          0.798              1.389              0.835
 Vibration    12          0.829              1.313              0.733
 Vibration    13          0.888              1.177              0.580
 Vibration    14          0.937              1.074              0.485
 Vibration    15          0.954              1.040              0.456

 Optimization completed.
    -- Stationary point found.
 Normal termination of Gaussian 09 at Thu Aug 26 13:00:08 2021.

 -----------------------------------------------------------------
 #P Geom=AllCheck Guess=TCheck SCRF=Check CCSD(T,E4T,FrzG4)/GTBas1
 -----------------------------------------------------------------

 Structure from the checkpoint file:  "/public/home/users/caep010/.cache/gau_scr/Gau-132470.chk"
 ------
 KAHHUY
 ------
 Charge =  0 Multiplicity = 1

 SCF Done:  E(RHF) =  -686.737763167     A.U. after   16 cycles
 E2 =    -0.1955761470D+01 EUMP2 =    -0.68869352463706D+03
 CCSD(T)
 CCSD(T)= -0.68877296496D+03
 DTQ=-688.7994601\MP4SDQ=-688.6961696\CCSD=-688.687031\CCSD(T)=-688.772
 Normal termination of Gaussian 09 at Thu Aug 26 13:54:36 2021.

 ---------------------------------------------------------
 #P Geom=AllCheck Guess=TCheck SCRF=Check MP4=FrzG4/GTBas2
 ---------------------------------------------------------

 Structure from the checkpoint file:  "/public/home/users/caep010/.cache/gau_scr/Gau-132470.chk"
 ------
 KAHHUY
 ------
 Charge =  0 Multiplicity = 1

 SCF Done:  E(RHF) =  -686.758829776     A.U. after   15 cycles
 E2 =    -0.1985179062D+01 EUMP2 =    -0.68874400883810D+03
 Normal termination of Gaussian 09 at Thu Aug 26 14:12:54 2021.

 ---------------------------------------------------------
 #P Geom=AllCheck Guess=TCheck SCRF=Check MP4=FrzG4/GTBas3
 ---------------------------------------------------------

 Structure from the checkpoint file:  "/public/home/users/caep010/.cache/gau_scr/Gau-132470.chk"
 ------
 KAHHUY
 ------
 Charge =  0 Multiplicity = 1

 SCF Done:  E(RHF) =  -686.813802478     A.U. after   13 cycles
 E2 =    -0.2321431513D+01 EUMP2 =    -0.68913523399117D+03
 Normal termination of Gaussian 09 at Thu Aug 26 16:18:10 2021.

 -----------------------------------------------------------
 #P Geom=AllCheck Guess=TCheck SCRF=Check MP2=Full/GTLargeXP
 -----------------------------------------------------------

 Structure from the checkpoint file:  "/public/home/users/caep010/.cache/gau_scr/Gau-132470.chk"
 ------
 KAHHUY
 ------
 Charge =  0 Multiplicity = 1

 SCF Done:  E(RHF) =  -686.994185644     A.U. after   15 cycles
 E2 =    -0.3008366200D+01 EUMP2 =    -0.69000255184449D+03
 Normal termination of Gaussian 09 at Thu Aug 26 16:32:44 2021.
 SCF Done:  E(RHF) =  -687.049186105     A.U. after   11 cycles
 Normal termination of Gaussian 09 at Thu Aug 26 16:37:49 2021.

                         Standard orientation:
 ---------------------------------------------------------------------
 Center     Atomic      Atomic             Coordinates (Angstroms)
 Number     Number       Type             X           Y           Z
 ---------------------------------------------------------------------
      1          6           0        0.730527   -0.585774    0.004247
      2          6           0       -0.499133    0.120618    0.029838
      3          6           0       -1.479691   -0.882794    0.045677
      4          7           0       -0.788566   -2.045792    0.032161
      5          1           0       -1.156354   -2.981557    0.085513
      6          7           0        0.567579   -1.882731    0.006853
      7          7           0        2.090782   -0.051886    0.072190
      8          8           0        2.898476   -0.489269   -0.728278
      9          8           0        2.296799    0.768925    0.950391
     10          7           0       -0.766148    1.503777   -0.110573
     11          8           0        0.163596    2.260044   -0.344761
     12          8           0       -1.952915    1.857165   -0.005821
     13          7           0       -2.825263   -0.776280    0.104883
     14          1           0       -3.395534   -1.511851   -0.280024
     15          1           0       -3.154672    0.176571    0.005097
 ---------------------------------------------------------------------

 SCF Done:  E(RHF) =  -687.060105578     A.U. after    8 cycles

 The electronic state is 1-A.
 Alpha  occ. eigenvalues --  -20.61841 -20.61724 -20.61699 -20.60802 -15.87540
 Alpha  occ. eigenvalues --  -15.87184 -15.69680 -15.65559 -15.63562 -11.40594
 Alpha  occ. eigenvalues --  -11.37723 -11.32389  -1.62584  -1.61752  -1.44887
 Alpha  occ. eigenvalues --   -1.41977  -1.41013  -1.29751  -1.19206  -1.14496
 Alpha  occ. eigenvalues --   -1.03688  -1.00011  -0.86745  -0.84538  -0.82224
 Alpha  occ. eigenvalues --   -0.77879  -0.76012  -0.74952  -0.74758  -0.74303
 Alpha  occ. eigenvalues --   -0.73895  -0.71209  -0.68178  -0.66541  -0.55287
 Alpha  occ. eigenvalues --   -0.54530  -0.52121  -0.51729  -0.51385  -0.50609
 Alpha  occ. eigenvalues --   -0.47314  -0.46034  -0.44455  -0.38055
 Alpha virt. eigenvalues --    0.00848   0.03426   0.03437   0.04139   0.05202
 Alpha virt. eigenvalues --    0.05884   0.06558   0.07166   0.07464   0.07620
 Alpha virt. eigenvalues --    0.08223   0.09370   0.09625   0.10397   0.10884

 Mulliken charges:
               1
     1  C    0.361496
     2  C    0.120200
     3  C    0.452500
     4  N   -0.303168
     5  H    0.379029
     6  N   -0.346787
     7  N    0.489360
     8  O   -0.393128
     9  O   -0.380412
    10  N    0.501271
    11  O   -0.402298
    12  O   -0.475229
    13  N   -0.707050
    14  H    0.326766
    15  H    0.377451
 Sum of Mulliken charges =  -0.00000

 Dipole moment (field-independent basis, Debye):
    X=             -6.9173    Y=             -5.8435    Z=             -0.4871  Tot=              9.0682
 Quadrupole moment (field-independent basis, Debye-Ang):
   XX=            -67.4932   YY=            -67.9014   ZZ=            -69.0421
   XY=             11.5548   XZ=              3.0956   YZ=             -0.3802

 Normal termination of Gaussian 09 at Thu Aug 26 17:10:33 2021.
