 Gaussian 09, Revision E.01,
 Gaussian 09:  ES64L-G09RevE.01 30-Nov-2015

 ----------------
 #P G4 OPT=calcfc
 ----------------

 ------
 KEFYOK
 ------
 Symbolic Z-matrix:
 Charge =  0 Multiplicity = 1

 SCF Done:  E(RB3LYP) =  -531.469316346     A.U. after   15 cycles
 SCF Done:  E(RB3LYP) =  -531.469033522     A.U. after   13 cycles
 SCF Done:  E(RB3LYP) =  -531.469336936     A.U. after   10 cycles
 SCF Done:  E(RB3LYP) =  -531.469531741     A.U. after   11 cycles
 SCF Done:  E(RB3LYP) =  -531.469531704     A.U. after    8 cycles
 SCF Done:  E(RB3LYP) =  -531.469532115     A.U. after    8 cycles
 Optimization completed.
    -- Stationary point found.
 Normal termination of Gaussian 09 at Wed Aug 25 05:04:03 2021.

 ----------------------------------------------------------
 #P Geom=AllCheck Guess=TCheck SCRF=Check B3LYP/GTBas3 Freq
 ----------------------------------------------------------

 Structure from the checkpoint file:  "/public/home/users/caep010/.cache/gau_scr/Gau-66259.chk"
 ------
 KEFYOK
 ------
 Charge =  0 Multiplicity = 1

 SCF Done:  E(RB3LYP) =  -531.469532115     A.U. after    1 cycles

  Exact polarizability: 132.988   2.372 120.045  -0.191  -0.052  45.251
 Approx polarizability: 217.672   7.293 227.313  -0.347   0.513  73.868

                      1                      2                      3
                      A                      A                      A
 Frequencies --     65.7786               105.5393               180.4385
 Red. masses --      9.4798                 5.9467                 1.2533
 Frc consts  --      0.0242                 0.0390                 0.0240
 IR Inten    --      0.3941                 1.2481                80.9264

                      4                      5                      6
                      A                      A                      A
 Frequencies --    213.2800               247.8288               264.4789
 Red. masses --      1.8864                 1.8710                 4.2190
 Frc consts  --      0.0506                 0.0677                 0.1739
 IR Inten    --      4.7696                48.4601                 8.7666

                      7                      8                      9
                      A                      A                      A
 Frequencies --    286.7617               370.4864               391.8713
 Red. masses --      2.0932                 3.5043                 7.9517
 Frc consts  --      0.1014                 0.2834                 0.7194
 IR Inten    --     28.9052                 3.6088                 1.8053

                     10                     11                     12
                      A                      A                      A
 Frequencies --    415.3934               477.8162               502.3192
 Red. masses --      4.2485                 3.6512                 5.4312
 Frc consts  --      0.4319                 0.4911                 0.8074
 IR Inten    --      3.7592                 8.8860                 3.2561

                     13                     14                     15
                      A                      A                      A
 Frequencies --    558.9685               574.7042               615.5250
 Red. masses --      3.5871                 3.9939                 1.1054
 Frc consts  --      0.6603                 0.7772                 0.2468
 IR Inten    --      1.3997                 5.6969                17.6053

                     16                     17                     18
                      A                      A                      A
 Frequencies --    643.1667               739.4719               766.1921
 Red. masses --      6.4236                 7.0216                 1.6876
 Frc consts  --      1.5656                 2.2622                 0.5837
 IR Inten    --      3.5072                 0.0591                41.5186

                     19                     20                     21
                      A                      A                      A
 Frequencies --    796.3137               825.2936               853.6003
 Red. masses --      6.7080                 2.8836                 4.2735
 Frc consts  --      2.5062                 1.1572                 1.8346
 IR Inten    --      8.2504                 0.6757                 4.1264

                     22                     23                     24
                      A                      A                      A
 Frequencies --    910.5905               940.8937               961.2743
 Red. masses --      4.1377                 1.3318                 1.2830
 Frc consts  --      2.0214                 0.6947                 0.6985
 IR Inten    --     18.9992                 0.2155                 0.6573

                     25                     26                     27
                      A                      A                      A
 Frequencies --   1017.8709              1064.8391              1093.0017
 Red. masses --      1.5114                 1.5089                 1.9237
 Frc consts  --      0.9226                 1.0080                 1.3540
 IR Inten    --     13.7651                 0.9667                25.8589

                     28                     29                     30
                      A                      A                      A
 Frequencies --   1116.1792              1185.4953              1212.9269
 Red. masses --      1.7964                 1.2363                 3.7657
 Frc consts  --      1.3187                 1.0237                 3.2641
 IR Inten    --     21.5254                 1.2107                44.7950

                     31                     32                     33
                      A                      A                      A
 Frequencies --   1287.1088              1301.4785              1363.7702
 Red. masses --      1.6917                 4.5921                 3.0679
 Frc consts  --      1.6512                 4.5828                 3.3618
 IR Inten    --      5.5340               226.1803               121.3413

                     34                     35                     36
                      A                      A                      A
 Frequencies --   1391.4869              1415.0335              1474.7172
 Red. masses --      5.5002                 1.3387                 1.9063
 Frc consts  --      6.2746                 1.5793                 2.4427
 IR Inten    --     86.6423                 9.1626                15.5079

                     37                     38                     39
                      A                      A                      A
 Frequencies --   1486.0007              1492.3272              1512.9281
 Red. masses --      1.0429                 2.8998                 1.3013
 Frc consts  --      1.3568                 3.8049                 1.7550
 IR Inten    --      6.6147                50.8868                31.6977

                     40                     41                     42
                      A                      A                      A
 Frequencies --   1580.1306              1608.4502              1625.4282
 Red. masses --      3.3983                 6.2679                 1.9197
 Frc consts  --      4.9991                 9.5541                 2.9882
 IR Inten    --    279.2386                71.7184                 6.0239

                     43                     44                     45
                      A                      A                      A
 Frequencies --   1662.9349              3009.1531              3055.7397
 Red. masses --      6.3468                 1.0418                 1.0981
 Frc consts  --     10.3408                 5.5582                 6.0413
 IR Inten    --    157.7970                28.8063                18.4084

                     46                     47                     48
                      A                      A                      A
 Frequencies --   3122.3183              3170.7246              3205.4488
 Red. masses --      1.0961                 1.0883                 1.0914
 Frc consts  --      6.2960                 6.4464                 6.6073
 IR Inten    --      9.7957                12.9769                 8.3892

                     49                     50                     51
                      A                      A                      A
 Frequencies --   3241.8076              3568.9606              3735.1365
 Red. masses --      1.0922                 1.0493                 1.0988
 Frc consts  --      6.7625                 7.8745                 9.0320
 IR Inten    --      3.1768                90.3291                77.4131

 - Thermochemistry -
 -------------------
 Temperature   298.150 Kelvin.  Pressure   1.00000 Atm.
 Atom     1 has atomic number  8 and mass  15.99491

 Molecular mass:   152.05858 amu.
 Principal axes and moments of inertia in atomic units:
                           1         2         3
     Eigenvalues --   927.876041881.530742797.84630
           X            0.99959   0.02868  -0.00031
           Y           -0.02868   0.99959  -0.00157
           Z            0.00027   0.00158   1.00000
 This molecule is an asymmetric top.
 Rotational symmetry number  1.
 Warning -- assumption of classical behavior for rotation
           may cause significant error
 Rotational temperatures (Kelvin)      0.09335     0.04603     0.03096
 Rotational constants (GHZ):           1.94502     0.95919     0.64505
 Zero-point vibrational energy     387048.1 (Joules/Mol)
                                   92.50671 (Kcal/Mol)
 Warning -- explicit consideration of  15 degrees of freedom as
           vibrations may cause significant error
 Vibrational temperatures:     94.64   151.85   259.61   306.86   356.57
          (Kelvin)            380.53   412.59   533.05   563.81   597.66
                              687.47   722.72   804.23   826.87   885.60
                              925.37  1063.93  1102.38  1145.72  1187.41
                             1228.14  1310.13  1353.73  1383.06  1464.49
                             1532.06  1572.58  1605.93  1705.66  1745.13
                             1851.86  1872.53  1962.16  2002.04  2035.92
                             2121.79  2138.02  2147.12  2176.76  2273.45
                             2314.20  2338.63  2392.59  4329.49  4396.52
                             4492.31  4561.96  4611.92  4664.23  5134.93
                             5374.02

 Zero-point correction=                           0.147419 (Hartree/Particle)
 Thermal correction to Energy=                    0.157132
 Thermal correction to Enthalpy=                  0.158076
 Thermal correction to Gibbs Free Energy=         0.112499
 Sum of electronic and zero-point Energies=           -531.322113
 Sum of electronic and thermal Energies=              -531.312400
 Sum of electronic and thermal Enthalpies=            -531.311456
 Sum of electronic and thermal Free Energies=         -531.357033

                     E (Thermal)             CV                S
                      KCal/Mol        Cal/Mol-Kelvin    Cal/Mol-Kelvin
 Total                   98.602             37.337             95.927
 Electronic               0.000              0.000              0.000
 Translational            0.889              2.981             40.967
 Rotational               0.889              2.981             29.970
 Vibrational             96.825             31.375             24.990
 Vibration     1          0.597              1.971              4.276
 Vibration     2          0.605              1.945              3.349
 Vibration     3          0.629              1.866              2.324
 Vibration     4          0.644              1.821              2.015
 Vibration     5          0.661              1.766              1.746
 Vibration     6          0.671              1.738              1.632
 Vibration     7          0.684              1.698              1.493
 Vibration     8          0.742              1.533              1.078
 Vibration     9          0.759              1.488              0.993
 Vibration    10          0.779              1.437              0.908
 Vibration    11          0.834              1.299              0.716
 Vibration    12          0.858              1.245              0.652
 Vibration    13          0.915              1.120              0.526
 Vibration    14          0.931              1.086              0.495
 Vibration    15          0.975              0.999              0.424

 Optimization completed.
    -- Stationary point found.
 Normal termination of Gaussian 09 at Wed Aug 25 05:06:07 2021.

 -----------------------------------------------------------------
 #P Geom=AllCheck Guess=TCheck SCRF=Check CCSD(T,E4T,FrzG4)/GTBas1
 -----------------------------------------------------------------

 Structure from the checkpoint file:  "/public/home/users/caep010/.cache/gau_scr/Gau-66259.chk"
 ------
 KEFYOK
 ------
 Charge =  0 Multiplicity = 1

 SCF Done:  E(RHF) =  -528.234744333     A.U. after   14 cycles
 E2 =    -0.1597969150D+01 EUMP2 =    -0.52983271348247D+03
 CCSD(T)
 CCSD(T)= -0.52993903065D+03
 29.9520032\MP4SDQ=-529.8701545\CCSD=-529.8674198\CCSD(T)=-529.9390307\
 Normal termination of Gaussian 09 at Wed Aug 25 05:42:47 2021.

 ---------------------------------------------------------
 #P Geom=AllCheck Guess=TCheck SCRF=Check MP4=FrzG4/GTBas2
 ---------------------------------------------------------

 Structure from the checkpoint file:  "/public/home/users/caep010/.cache/gau_scr/Gau-66259.chk"
 ------
 KEFYOK
 ------
 Charge =  0 Multiplicity = 1

 SCF Done:  E(RHF) =  -528.250187809     A.U. after   15 cycles
 E2 =    -0.1618365315D+01 EUMP2 =    -0.52986855312398D+03
 Normal termination of Gaussian 09 at Wed Aug 25 05:54:58 2021.

 ---------------------------------------------------------
 #P Geom=AllCheck Guess=TCheck SCRF=Check MP4=FrzG4/GTBas3
 ---------------------------------------------------------

 Structure from the checkpoint file:  "/public/home/users/caep010/.cache/gau_scr/Gau-66259.chk"
 ------
 KEFYOK
 ------
 Charge =  0 Multiplicity = 1

 SCF Done:  E(RHF) =  -528.292402893     A.U. after   13 cycles
 E2 =    -0.1916177671D+01 EUMP2 =    -0.53020858056366D+03
 Normal termination of Gaussian 09 at Wed Aug 25 07:40:08 2021.

 -----------------------------------------------------------
 #P Geom=AllCheck Guess=TCheck SCRF=Check MP2=Full/GTLargeXP
 -----------------------------------------------------------

 Structure from the checkpoint file:  "/public/home/users/caep010/.cache/gau_scr/Gau-66259.chk"
 ------
 KEFYOK
 ------
 Charge =  0 Multiplicity = 1

 SCF Done:  E(RHF) =  -528.419808638     A.U. after   14 cycles
 E2 =    -0.2513952786D+01 EUMP2 =    -0.53093376142406D+03
 Normal termination of Gaussian 09 at Wed Aug 25 07:54:13 2021.
 SCF Done:  E(RHF) =  -528.462242099     A.U. after   10 cycles
 Normal termination of Gaussian 09 at Wed Aug 25 07:59:22 2021.

                         Standard orientation:
 ---------------------------------------------------------------------
 Center     Atomic      Atomic             Coordinates (Angstroms)
 Number     Number       Type             X           Y           Z
 ---------------------------------------------------------------------
      1          8           0        2.916273    0.680450   -0.005462
      2          7           0        2.028209   -0.163868    0.001454
      3          8           0        2.269022   -1.381182    0.017075
      4          6           0        0.647037    0.283238   -0.005300
      5          6           0        0.436120    1.668671   -0.003993
      6          1           0        1.307201    2.308518   -0.006171
      7          6           0       -0.438505   -0.633213   -0.005568
      8          7           0       -0.277428   -1.980187   -0.038966
      9          1           0       -1.068232   -2.576787    0.119344
     10          1           0        0.661021   -2.338252    0.051771
     11          6           0       -1.755264   -0.084875    0.003419
     12          6           0       -2.939874   -1.016411   -0.001163
     13          1           0       -3.875305   -0.453398   -0.015127
     14          1           0       -2.960696   -1.660621    0.888552
     15          1           0       -2.935887   -1.675862   -0.878556
     16          6           0       -0.843022    2.176515    0.003247
     17          1           0       -1.010222    3.246594    0.004598
     18          6           0       -1.926045    1.286703    0.008015
     19          1           0       -2.938381    1.680281    0.013328
 ---------------------------------------------------------------------

 SCF Done:  E(RHF) =  -528.470413633     A.U. after    8 cycles

 The electronic state is 1-A.
 Alpha  occ. eigenvalues --  -20.59202 -20.58966 -15.84808 -15.58373 -11.32659
 Alpha  occ. eigenvalues --  -11.29287 -11.26405 -11.26299 -11.25638 -11.24645
 Alpha  occ. eigenvalues --  -11.23875  -1.59399  -1.38589  -1.26209  -1.16539
 Alpha  occ. eigenvalues --   -1.10032  -1.04307  -0.95898  -0.94660  -0.84225
 Alpha  occ. eigenvalues --   -0.82720  -0.75958  -0.73126  -0.72229  -0.71673
 Alpha  occ. eigenvalues --   -0.71289  -0.64863  -0.62706  -0.60539  -0.60134
 Alpha  occ. eigenvalues --   -0.56995  -0.54755  -0.54000  -0.51831  -0.49014
 Alpha  occ. eigenvalues --   -0.48417  -0.47450  -0.44973  -0.36699  -0.31142
 Alpha virt. eigenvalues --    0.02858   0.03597   0.04071   0.04507   0.04936
 Alpha virt. eigenvalues --    0.05625   0.06208   0.07382   0.07569   0.08041
 Alpha virt. eigenvalues --    0.08414   0.08451   0.09667   0.09889   0.09988

 Mulliken charges:
               1
     1  O   -0.444632
     2  N    0.496226
     3  O   -0.469371
     4  C    0.104044
     5  C   -0.190785
     6  H    0.256441
     7  C    0.290706
     8  N   -0.787936
     9  H    0.328158
    10  H    0.380295
    11  C    0.155248
    12  C   -0.664843
    13  H    0.185006
    14  H    0.183618
    15  H    0.202353
    16  C   -0.229496
    17  H    0.216024
    18  C   -0.210070
    19  H    0.199015
 Sum of Mulliken charges =  -0.00000

 Dipole moment (field-independent basis, Debye):
    X=             -5.4586    Y=             -0.2709    Z=              0.3209  Tot=              5.4748
 Quadrupole moment (field-independent basis, Debye-Ang):
   XX=            -71.0108   YY=            -57.2567   ZZ=            -67.3239
   XY=              2.6368   XZ=             -0.2090   YZ=             -0.9596

 Normal termination of Gaussian 09 at Wed Aug 25 08:34:35 2021.
