 Gaussian 09, Revision E.01,
 Gaussian 09:  ES64L-G09RevE.01 30-Nov-2015

 ----------------
 #P G4 OPT=calcfc
 ----------------

 ------
 KOBXOO
 ------
 Symbolic Z-matrix:
 Charge =  0 Multiplicity = 1

 SCF Done:  E(RB3LYP) =  -561.246811727     A.U. after   16 cycles
 SCF Done:  E(RB3LYP) =  -561.306486562     A.U. after   14 cycles
 SCF Done:  E(RB3LYP) =  -561.302493058     A.U. after   14 cycles
 SCF Done:  E(RB3LYP) =  -561.316278494     A.U. after   12 cycles
 SCF Done:  E(RB3LYP) =  -561.299497781     A.U. after   13 cycles
 SCF Done:  E(RB3LYP) =  -561.323485740     A.U. after   11 cycles
 SCF Done:  E(RB3LYP) =  -561.322264831     A.U. after   14 cycles
 SCF Done:  E(RB3LYP) =  -561.324216866     A.U. after   10 cycles
 SCF Done:  E(RB3LYP) =  -561.322927290     A.U. after   13 cycles
 SCF Done:  E(RB3LYP) =  -561.325364382     A.U. after    9 cycles
 SCF Done:  E(RB3LYP) =  -561.325711890     A.U. after   10 cycles
 SCF Done:  E(RB3LYP) =  -561.325714848     A.U. after    9 cycles
 SCF Done:  E(RB3LYP) =  -561.325715230     A.U. after    8 cycles
 Optimization completed.
    -- Stationary point found.
 Normal termination of Gaussian 09 at Fri Aug 27 05:09:43 2021.

 ----------------------------------------------------------
 #P Geom=AllCheck Guess=TCheck SCRF=Check B3LYP/GTBas3 Freq
 ----------------------------------------------------------

 Structure from the checkpoint file:  "/public/home/users/caep010/.cache/gau_scr/Gau-149873.chk"
 ------
 KOBXOO
 ------
 Charge =  0 Multiplicity = 1

 SCF Done:  E(RB3LYP) =  -561.325715230     A.U. after    1 cycles

  Exact polarizability:  86.802  -3.009  94.732  -0.696  -0.967  34.407
 Approx polarizability: 137.292  -8.284 183.287  -1.474  -1.982  55.747

                      1                      2                      3
                      A                      A                      A
 Frequencies --     85.1258               137.7810               210.3768
 Red. masses --     13.6363                 6.8717                 5.6619
 Frc consts  --      0.0582                 0.0769                 0.1476
 IR Inten    --      1.2835                 0.9323                 3.6482

                      4                      5                      6
                      A                      A                      A
 Frequencies --    227.8719               303.8232               323.9820
 Red. masses --      9.7374                 3.7022                 3.1785
 Frc consts  --      0.2979                 0.2014                 0.1966
 IR Inten    --      2.7911                 4.9931                17.7001

                      7                      8                      9
                      A                      A                      A
 Frequencies --    379.5611               417.0009               456.3668
 Red. masses --      1.3149                 9.3703                 8.6726
 Frc consts  --      0.1116                 0.9600                 1.0642
 IR Inten    --    181.1697                 0.8006                11.7488

                     10                     11                     12
                      A                      A                      A
 Frequencies --    570.5065               601.7274               614.4760
 Red. masses --      1.5702                 2.8446                 2.4703
 Frc consts  --      0.3011                 0.6068                 0.5496
 IR Inten    --    116.7348                56.0419                29.0356

                     13                     14                     15
                      A                      A                      A
 Frequencies --    649.3462               680.0192               743.6924
 Red. masses --      2.6271                 2.3016                 6.9589
 Frc consts  --      0.6527                 0.6271                 2.2677
 IR Inten    --     12.6693                30.7081                61.7751

                     16                     17                     18
                      A                      A                      A
 Frequencies --    759.0269               770.4537               809.4706
 Red. masses --      4.0951                 3.6173                 9.8186
 Frc consts  --      1.3901                 1.2651                 3.7905
 IR Inten    --     28.8093               240.7923                53.6748

                     19                     20                     21
                      A                      A                      A
 Frequencies --    850.1849              1047.7409              1104.3194
 Red. masses --      6.4833                 1.6720                 3.9991
 Frc consts  --      2.7611                 1.0814                 2.8734
 IR Inten    --      5.7741                 7.0708                14.4163

                     22                     23                     24
                      A                      A                      A
 Frequencies --   1148.2196              1208.2225              1270.5848
 Red. masses --      5.3666                 3.2007                 6.1688
 Frc consts  --      4.1687                 2.7529                 5.8675
 IR Inten    --     28.6924                 7.6647                 1.5521

                     25                     26                     27
                      A                      A                      A
 Frequencies --   1362.1614              1367.5683              1421.4798
 Red. masses --      3.5578                 1.3081                 1.6484
 Frc consts  --      3.8894                 1.4415                 1.9624
 IR Inten    --    158.2257                63.0353                73.8531

                     28                     29                     30
                      A                      A                      A
 Frequencies --   1525.0089              1551.0824              1609.5204
 Red. masses --      2.9284                 2.3792                 3.5098
 Frc consts  --      4.0126                 3.3725                 5.3570
 IR Inten    --    241.8460               100.9440                68.2819

                     31                     32                     33
                      A                      A                      A
 Frequencies --   1686.0496              1849.2576              3511.0986
 Red. masses --      4.8001                11.8275                 1.0521
 Frc consts  --      8.0397                23.8307                 7.6420
 IR Inten    --    520.4674               398.3342               112.8341

                     34                     35                     36
                      A                      A                      A
 Frequencies --   3528.7287              3555.7278              3691.1188
 Red. masses --      1.0751                 1.0773                 1.0969
 Frc consts  --      7.8875                 8.0251                 8.8049
 IR Inten    --     18.8228                30.0450                93.6593

 - Thermochemistry -
 -------------------
 Temperature   298.150 Kelvin.  Pressure   1.00000 Atm.
 Atom     1 has atomic number  8 and mass  15.99491

 Molecular mass:   144.02834 amu.
 Principal axes and moments of inertia in atomic units:
                           1         2         3
     Eigenvalues --   978.333631171.013272141.71918
           X            0.99996  -0.00912  -0.00090
           Y            0.00912   0.99996  -0.00122
           Z            0.00091   0.00121   1.00000
 This molecule is an asymmetric top.
 Rotational symmetry number  1.
 Warning -- assumption of classical behavior for rotation
           may cause significant error
 Rotational temperatures (Kelvin)      0.08853     0.07396     0.04044
 Rotational constants (GHZ):           1.84471     1.54118     0.84266
 Zero-point vibrational energy     251387.3 (Joules/Mol)
                                   60.08302 (Kcal/Mol)
 Warning -- explicit consideration of  12 degrees of freedom as
           vibrations may cause significant error
 Vibrational temperatures:    122.48   198.24   302.68   327.86   437.13
          (Kelvin)            466.14   546.10   599.97   656.61   820.83
                              865.75   884.09   934.26   978.39  1070.01
                             1092.07  1108.51  1164.65  1223.22  1507.46
                             1588.87  1652.03  1738.36  1828.09  1959.84
                             1967.62  2045.19  2194.14  2231.66  2315.74
                             2425.85  2660.67  5051.68  5077.05  5115.89
                             5310.69

 Zero-point correction=                           0.095748 (Hartree/Particle)
 Thermal correction to Energy=                    0.104063
 Thermal correction to Enthalpy=                  0.105007
 Thermal correction to Gibbs Free Energy=         0.062448
 Sum of electronic and zero-point Energies=           -561.229967
 Sum of electronic and thermal Energies=              -561.221652
 Sum of electronic and thermal Enthalpies=            -561.220708
 Sum of electronic and thermal Free Energies=         -561.263267

                     E (Thermal)             CV                S
                      KCal/Mol        Cal/Mol-Kelvin    Cal/Mol-Kelvin
 Total                   65.300             31.132             89.572
 Electronic               0.000              0.000              0.000
 Translational            0.889              2.981             40.806
 Rotational               0.889              2.981             29.285
 Vibrational             63.523             25.170             19.481
 Vibration     1          0.601              1.959              3.769
 Vibration     2          0.614              1.916              2.834
 Vibration     3          0.643              1.825              2.040
 Vibration     4          0.651              1.799              1.896
 Vibration     5          0.695              1.666              1.396
 Vibration     6          0.709              1.627              1.290
 Vibration     7          0.750              1.514              1.041
 Vibration     8          0.780              1.433              0.902
 Vibration     9          0.815              1.347              0.777
 Vibration    10          0.927              1.095              0.503
 Vibration    11          0.960              1.028              0.447
 Vibration    12          0.974              1.001              0.425

 Optimization completed.
    -- Stationary point found.
 Normal termination of Gaussian 09 at Fri Aug 27 05:10:59 2021.

 -----------------------------------------------------------------
 #P Geom=AllCheck Guess=TCheck SCRF=Check CCSD(T,E4T,FrzG4)/GTBas1
 -----------------------------------------------------------------

 Structure from the checkpoint file:  "/public/home/users/caep010/.cache/gau_scr/Gau-149873.chk"
 ------
 KOBXOO
 ------
 Charge =  0 Multiplicity = 1

 SCF Done:  E(RHF) =  -558.158492842     A.U. after   15 cycles
 E2 =    -0.1573861080D+01 EUMP2 =    -0.55973235392149D+03
 CCSD(T)
 CCSD(T)= -0.55981157172D+03
 SD=-559.7477839\CCSD(T)=-559.8115717\RMSD=9.033e-09\PG=C01 [X(C3H4N4O3
 Normal termination of Gaussian 09 at Fri Aug 27 05:27:41 2021.

 ---------------------------------------------------------
 #P Geom=AllCheck Guess=TCheck SCRF=Check MP4=FrzG4/GTBas2
 ---------------------------------------------------------

 Structure from the checkpoint file:  "/public/home/users/caep010/.cache/gau_scr/Gau-149873.chk"
 ------
 KOBXOO
 ------
 Charge =  0 Multiplicity = 1

 SCF Done:  E(RHF) =  -558.176093765     A.U. after   14 cycles
 E2 =    -0.1597618656D+01 EUMP2 =    -0.55977371242049D+03
 Normal termination of Gaussian 09 at Fri Aug 27 05:35:48 2021.

 ---------------------------------------------------------
 #P Geom=AllCheck Guess=TCheck SCRF=Check MP4=FrzG4/GTBas3
 ---------------------------------------------------------

 Structure from the checkpoint file:  "/public/home/users/caep010/.cache/gau_scr/Gau-149873.chk"
 ------
 KOBXOO
 ------
 Charge =  0 Multiplicity = 1

 SCF Done:  E(RHF) =  -558.222701379     A.U. after   12 cycles
 E2 =    -0.1881392419D+01 EUMP2 =    -0.56010409379835D+03
 Normal termination of Gaussian 09 at Fri Aug 27 06:14:34 2021.

 -----------------------------------------------------------
 #P Geom=AllCheck Guess=TCheck SCRF=Check MP2=Full/GTLargeXP
 -----------------------------------------------------------

 Structure from the checkpoint file:  "/public/home/users/caep010/.cache/gau_scr/Gau-149873.chk"
 ------
 KOBXOO
 ------
 Charge =  0 Multiplicity = 1

 SCF Done:  E(RHF) =  -558.370654357     A.U. after   14 cycles
 E2 =    -0.2450262419D+01 EUMP2 =    -0.56082091677579D+03
 Normal termination of Gaussian 09 at Fri Aug 27 06:22:14 2021.
 SCF Done:  E(RHF) =  -558.414607179     A.U. after   10 cycles
 Normal termination of Gaussian 09 at Fri Aug 27 06:30:03 2021.

                         Standard orientation:
 ---------------------------------------------------------------------
 Center     Atomic      Atomic             Coordinates (Angstroms)
 Number     Number       Type             X           Y           Z
 ---------------------------------------------------------------------
      1          8           0       -0.858839   -2.328891    0.048163
      2          6           0       -0.884744   -1.127675   -0.030121
      3          7           0       -2.105097   -0.378510   -0.124901
      4          1           0       -2.826160   -0.720698    0.501115
      5          6           0        0.154758   -0.102008   -0.025370
      6          7           0        1.552158   -0.307659   -0.005129
      7          8           0        2.277850    0.709339    0.029363
      8          6           0       -0.445623    1.144810    0.021651
      9          7           0        0.120375    2.355246   -0.040606
     10          1           0       -0.392864    3.169155    0.254462
     11          1           0        1.133281    2.340320    0.015513
     12          8           0        1.983628   -1.448745   -0.026243
     13          7           0       -1.815363    0.997616    0.104683
     14          1           0       -2.346222    1.599988   -0.516644
 ---------------------------------------------------------------------

 SCF Done:  E(RHF) =  -558.423483926     A.U. after    8 cycles

 The electronic state is 1-A.
 Alpha  occ. eigenvalues --  -20.59914 -20.58654 -20.53869 -15.85495 -15.66862
 Alpha  occ. eigenvalues --  -15.64102 -15.63525 -11.40418 -11.38055 -11.29344
 Alpha  occ. eigenvalues --   -1.59690  -1.42606  -1.39048  -1.37651  -1.28953
 Alpha  occ. eigenvalues --   -1.13804  -1.12788  -0.98243  -0.86961  -0.83428
 Alpha  occ. eigenvalues --   -0.78431  -0.76529  -0.73089  -0.72514  -0.71985
 Alpha  occ. eigenvalues --   -0.69587  -0.68639  -0.63066  -0.62477  -0.57322
 Alpha  occ. eigenvalues --   -0.52896  -0.50492  -0.49136  -0.45603  -0.44510
 Alpha  occ. eigenvalues --   -0.42022  -0.37977
 Alpha virt. eigenvalues --    0.01268   0.03421   0.04022   0.04966   0.05811
 Alpha virt. eigenvalues --    0.06493   0.07154   0.07468   0.08147   0.08504
 Alpha virt. eigenvalues --    0.09566   0.09863   0.10696   0.11083   0.11471

 Mulliken charges:
               1
     1  O   -0.565907
     2  C    0.468102
     3  N   -0.354519
     4  H    0.343968
     5  C    0.082420
     6  N    0.486542
     7  O   -0.509380
     8  C    0.464522
     9  N   -0.710480
    10  H    0.346554
    11  H    0.390351
    12  O   -0.377162
    13  N   -0.407782
    14  H    0.342771
 Sum of Mulliken charges =  -0.00000

 Dipole moment (field-independent basis, Debye):
    X=             -5.1313    Y=              7.6496    Z=              0.4702  Tot=              9.2232
 Quadrupole moment (field-independent basis, Debye-Ang):
   XX=            -58.3691   YY=            -56.6205   ZZ=            -56.3938
   XY=             -3.1977   XZ=             -0.7588   YZ=             -0.4568

 Normal termination of Gaussian 09 at Fri Aug 27 06:51:54 2021.
