 Gaussian 09, Revision E.01,
 Gaussian 09:  ES64L-G09RevE.01 30-Nov-2015

 ----------------
 #P G4 OPT=calcfc
 ----------------

 ------
 KAXLOK
 ------
 Symbolic Z-matrix:
 Charge =  0 Multiplicity = 1

 SCF Done:  E(RB3LYP) =  -687.452955954     A.U. after   15 cycles
 SCF Done:  E(RB3LYP) =  -687.563544305     A.U. after   14 cycles
 SCF Done:  E(RB3LYP) =  -687.670744998     A.U. after   14 cycles
 SCF Done:  E(RB3LYP) =  -687.692710563     A.U. after   15 cycles
 SCF Done:  E(RB3LYP) =  -687.694795178     A.U. after   15 cycles
 SCF Done:  E(RB3LYP) =  -687.621962882     A.U. after   13 cycles
 SCF Done:  E(RB3LYP) =  -687.660619614     A.U. after   12 cycles
 SCF Done:  E(RB3LYP) =  -687.679869427     A.U. after   13 cycles
 SCF Done:  E(RB3LYP) =  -687.694795178     A.U. after    8 cycles
 SCF Done:  E(RB3LYP) =  -687.696690475     A.U. after   14 cycles
 SCF Done:  E(RB3LYP) =  -687.697081399     A.U. after    8 cycles
 SCF Done:  E(RB3LYP) =  -687.697081330     A.U. after    7 cycles
 SCF Done:  E(RB3LYP) =  -687.697081358     A.U. after    6 cycles
 Optimization completed.
    -- Stationary point found.
 Normal termination of Gaussian 09 at Wed Aug 25 05:37:04 2021.

 ----------------------------------------------------------
 #P Geom=AllCheck Guess=TCheck SCRF=Check B3LYP/GTBas3 Freq
 ----------------------------------------------------------

 Structure from the checkpoint file:  "/public/home/users/caep010/.cache/gau_scr/Gau-101331.chk"
 ------
 KAXLOK
 ------
 Charge =  0 Multiplicity = 1

 SCF Done:  E(RB3LYP) =  -687.697081358     A.U. after    1 cycles

  Exact polarizability: 175.166   8.078 130.668   4.963  -7.822  92.086
 Approx polarizability: 260.759   8.700 181.334  10.112 -21.550 150.903

                      1                      2                      3
                      A                      A                      A
 Frequencies --     27.5012                51.2461                71.5682
 Red. masses --      4.2490                 4.1086                 3.6493
 Frc consts  --      0.0019                 0.0064                 0.0110
 IR Inten    --      0.5995                 0.6677                 0.1481

                      4                      5                      6
                      A                      A                      A
 Frequencies --     90.6153               111.6681               119.7345
 Red. masses --      2.9334                 3.0461                 4.1963
 Frc consts  --      0.0142                 0.0224                 0.0354
 IR Inten    --      1.8683                 0.8639                 1.9516

                      7                      8                      9
                      A                      A                      A
 Frequencies --    145.0400               160.0810               196.9904
 Red. masses --      2.2656                 1.4799                 2.0956
 Frc consts  --      0.0281                 0.0223                 0.0479
 IR Inten    --      0.9981                 0.1952                 1.5900

                     10                     11                     12
                      A                      A                      A
 Frequencies --    231.6660               245.2127               267.4117
 Red. masses --      1.4411                 2.2336                 4.5257
 Frc consts  --      0.0456                 0.0791                 0.1907
 IR Inten    --      3.6620                 0.9743                 0.5404

                     13                     14                     15
                      A                      A                      A
 Frequencies --    278.6817               300.7259               353.7859
 Red. masses --      3.0579                 3.2495                 4.4571
 Frc consts  --      0.1399                 0.1731                 0.3287
 IR Inten    --      3.5333                 1.1266                 0.2092

                     16                     17                     18
                      A                      A                      A
 Frequencies --    378.9077               428.7463               463.0624
 Red. masses --      2.7365                 3.7921                 2.7879
 Frc consts  --      0.2315                 0.4107                 0.3522
 IR Inten    --      0.7352                 5.4575                12.3596

                     19                     20                     21
                      A                      A                      A
 Frequencies --    514.8084               558.1530               591.3981
 Red. masses --      2.5825                 6.5248                 1.9401
 Frc consts  --      0.4033                 1.1976                 0.3998
 IR Inten    --     11.3896                 3.9132                 1.0313

                     22                     23                     24
                      A                      A                      A
 Frequencies --    656.2650               728.1710               770.8400
 Red. masses --      4.3198                 3.6500                 8.6614
 Frc consts  --      1.0961                 1.1403                 3.0323
 IR Inten    --      2.2969                 6.6033                12.2353

                     25                     26                     27
                      A                      A                      A
 Frequencies --    817.2210               871.0344               881.8608
 Red. masses --      3.5429                 5.7967                 1.9484
 Frc consts  --      1.3941                 2.5912                 0.8927
 IR Inten    --      6.0093                19.7994                15.7120

                     28                     29                     30
                      A                      A                      A
 Frequencies --    896.0172               941.1040               952.9689
 Red. masses --      1.4504                 2.4750                 1.7954
 Frc consts  --      0.6861                 1.2915                 0.9606
 IR Inten    --      3.4624                 8.1235                 0.1094

                     31                     32                     33
                      A                      A                      A
 Frequencies --    985.1332               988.8282               993.2486
 Red. masses --      1.5994                 1.9669                 2.6597
 Frc consts  --      0.9145                 1.1331                 1.5459
 IR Inten    --     62.7208                36.0150                 6.5782

                     34                     35                     36
                      A                      A                      A
 Frequencies --   1018.8898              1037.8322              1069.9229
 Red. masses --      1.9273                 1.8455                 1.3785
 Frc consts  --      1.1788                 1.1712                 0.9297
 IR Inten    --      3.7159                 5.4489                 5.4869

                     37                     38                     39
                      A                      A                      A
 Frequencies --   1113.2778              1131.7060              1137.0028
 Red. masses --      2.2323                 2.7552                 2.0350
 Frc consts  --      1.6301                 2.0791                 1.5500
 IR Inten    --     17.4385                46.6799                12.5109

                     40                     41                     42
                      A                      A                      A
 Frequencies --   1168.3872              1182.5099              1190.3836
 Red. masses --      3.2811                 1.2949                 1.5703
 Frc consts  --      2.6390                 1.0668                 1.3110
 IR Inten    --    105.1578                15.8555                14.5666

                     43                     44                     45
                      A                      A                      A
 Frequencies --   1201.9597              1219.2380              1235.1634
 Red. masses --      2.2840                 1.8145                 1.6727
 Frc consts  --      1.9442                 1.5892                 1.5036
 IR Inten    --      5.8452                12.6701                27.6632

                     46                     47                     48
                      A                      A                      A
 Frequencies --   1262.5064              1278.9925              1300.2335
 Red. masses --      1.1806                 1.2656                 1.3138
 Frc consts  --      1.1087                 1.2198                 1.3087
 IR Inten    --     14.6994                 6.0805                14.0000

                     49                     50                     51
                      A                      A                      A
 Frequencies --   1341.5341              1342.4516              1354.8767
 Red. masses --      5.4872                 1.4495                 1.2692
 Frc consts  --      5.8184                 1.5391                 1.3728
 IR Inten    --    860.6858                14.5661                 1.6388

                     52                     53                     54
                      A                      A                      A
 Frequencies --   1360.9742              1386.3991              1403.6226
 Red. masses --      1.2870                 1.5041                 1.7940
 Frc consts  --      1.4045                 1.7034                 2.0824
 IR Inten    --     17.9610                 8.8072                93.3011

                     55                     56                     57
                      A                      A                      A
 Frequencies --   1415.6215              1424.3230              1441.2856
 Red. masses --      1.4828                 1.5331                 2.1038
 Frc consts  --      1.7508                 1.8325                 2.5749
 IR Inten    --     34.1781                21.6044                36.8162

                     58                     59                     60
                      A                      A                      A
 Frequencies --   1475.1218              1479.1092              1486.9678
 Red. masses --      1.0452                 1.1519                 1.0466
 Frc consts  --      1.3400                 1.4848                 1.3634
 IR Inten    --      6.9082                 2.7690                 7.3410

                     61                     62                     63
                      A                      A                      A
 Frequencies --   1489.8795              1495.5387              1497.6882
 Red. masses --      1.0874                 1.1046                 1.0741
 Frc consts  --      1.4221                 1.4556                 1.4196
 IR Inten    --      3.0829                14.2522                11.5640

                     64                     65                     66
                      A                      A                      A
 Frequencies --   1500.6597              1520.9866              1525.0784
 Red. masses --      1.0965                 1.0992                 1.0939
 Frc consts  --      1.4549                 1.4982                 1.4991
 IR Inten    --      0.9732                 4.3509                 4.8959

                     67                     68                     69
                      A                      A                      A
 Frequencies --   1582.1130              1700.8370              2947.0158
 Red. masses --     11.7434                 6.9492                 1.0546
 Frc consts  --     17.3189                11.8444                 5.3965
 IR Inten    --    134.5422               404.7940                41.3684

                     70                     71                     72
                      A                      A                      A
 Frequencies --   2978.4043              2981.8817              3000.9672
 Red. masses --      1.0438                 1.0950                 1.0707
 Frc consts  --      5.4557                 5.7366                 5.6814
 IR Inten    --     76.7547                27.1637                39.1102

                     73                     74                     75
                      A                      A                      A
 Frequencies --   3013.5104              3026.4550              3036.6499
 Red. masses --      1.0860                 1.1033                 1.0692
 Frc consts  --      5.8108                 5.9540                 5.8091
 IR Inten    --     50.0385                44.9625                22.4832

                     76                     77                     78
                      A                      A                      A
 Frequencies --   3043.0485              3055.9471              3098.9994
 Red. masses --      1.0452                 1.0631                 1.0930
 Frc consts  --      5.7028                 5.8494                 6.1848
 IR Inten    --     22.5791                22.3251                 5.1407

                     79                     80                     81
                      A                      A                      A
 Frequencies --   3100.5305              3110.3974              3117.3363
 Red. masses --      1.0925                 1.0956                 1.1034
 Frc consts  --      6.1879                 6.2450                 6.3178
 IR Inten    --     20.4097                26.6790                27.9844

                     82                     83                     84
                      A                      A                      A
 Frequencies --   3129.6431              3155.4861              3216.6211
 Red. masses --      1.0965                 1.0962                 1.0872
 Frc consts  --      6.3279                 6.4307                 6.6275
 IR Inten    --     16.0077                14.3937                10.4840

 - Thermochemistry -
 -------------------
 Temperature   298.150 Kelvin.  Pressure   1.00000 Atm.
 Atom     1 has atomic number  6 and mass  12.00000

 Molecular mass:   200.11609 amu.
 Principal axes and moments of inertia in atomic units:
                           1         2         3
     Eigenvalues --  2179.561943789.165275546.20206
           X            0.99959  -0.02791   0.00602
           Y            0.02786   0.99958   0.00750
           Z           -0.00622  -0.00733   0.99995
 This molecule is an asymmetric top.
 Rotational symmetry number  1.
 Warning -- assumption of classical behavior for rotation
           may cause significant error
 Rotational temperatures (Kelvin)      0.03974     0.02286     0.01562
 Rotational constants (GHZ):           0.82803     0.47629     0.32540
 Zero-point vibrational energy     669045.4 (Joules/Mol)
                                  159.90570 (Kcal/Mol)
 Warning -- explicit consideration of  21 degrees of freedom as
           vibrations may cause significant error
 Vibrational temperatures:     39.57    73.73   102.97   130.37   160.67
          (Kelvin)            172.27   208.68   230.32   283.42   333.32
                              352.81   384.75   400.96   432.68   509.02
                              545.16   616.87   666.24   740.69   803.06
                              850.89   944.22  1047.67  1109.07  1175.80
                             1253.22  1268.80  1289.17  1354.04  1371.11
                             1417.39  1422.70  1429.06  1465.95  1493.21
                             1539.38  1601.76  1628.27  1635.89  1681.05
                             1701.37  1712.69  1729.35  1754.21  1777.12
                             1816.46  1840.18  1870.74  1930.17  1931.49
                             1949.36  1958.14  1994.72  2019.50  2036.76
                             2049.28  2073.69  2122.37  2128.11  2139.41
                             2143.60  2151.74  2154.84  2159.11  2188.36
                             2194.24  2276.30  2447.12  4240.09  4285.25
                             4290.26  4317.72  4335.76  4354.39  4369.06
                             4378.26  4396.82  4458.76  4460.97  4475.16
                             4485.15  4502.85  4540.04  4627.99

 Zero-point correction=                           0.254826 (Hartree/Particle)
 Thermal correction to Energy=                    0.269485
 Thermal correction to Enthalpy=                  0.270429
 Thermal correction to Gibbs Free Energy=         0.211989
 Sum of electronic and zero-point Energies=           -687.442255
 Sum of electronic and thermal Energies=              -687.427596
 Sum of electronic and thermal Enthalpies=            -687.426652
 Sum of electronic and thermal Free Energies=         -687.485092

                     E (Thermal)             CV                S
                      KCal/Mol        Cal/Mol-Kelvin    Cal/Mol-Kelvin
 Total                  169.104             53.153            122.997
 Electronic               0.000              0.000              0.000
 Translational            0.889              2.981             41.786
 Rotational               0.889              2.981             32.194
 Vibrational            167.327             47.191             49.017
 Vibration     1          0.593              1.984              6.002
 Vibration     2          0.596              1.977              4.769
 Vibration     3          0.598              1.968              4.110
 Vibration     4          0.602              1.956              3.647
 Vibration     5          0.607              1.940              3.240
 Vibration     6          0.609              1.933              3.105
 Vibration     7          0.616              1.908              2.736
 Vibration     8          0.622              1.891              2.549
 Vibration     9          0.636              1.844              2.161
 Vibration    10          0.653              1.793              1.866
 Vibration    11          0.660              1.771              1.765
 Vibration    12          0.673              1.733              1.613
 Vibration    13          0.679              1.713              1.542
 Vibration    14          0.693              1.672              1.413
 Vibration    15          0.730              1.567              1.149
 Vibration    16          0.749              1.515              1.044
 Vibration    17          0.790              1.408              0.863
 Vibration    18          0.821              1.332              0.757
 Vibration    19          0.870              1.217              0.622
 Vibration    20          0.914              1.122              0.528
 Vibration    21          0.949              1.050              0.465

 Optimization completed.
    -- Stationary point found.
 Normal termination of Gaussian 09 at Wed Aug 25 05:42:17 2021.

 -----------------------------------------------------------------
 #P Geom=AllCheck Guess=TCheck SCRF=Check CCSD(T,E4T,FrzG4)/GTBas1
 -----------------------------------------------------------------

 Structure from the checkpoint file:  "/public/home/users/caep010/.cache/gau_scr/Gau-101331.chk"
 ------
 KAXLOK
 ------
 Charge =  0 Multiplicity = 1

 SCF Done:  E(RHF) =  -683.451493463     A.U. after   15 cycles
 E2 =    -0.2050415668D+01 EUMP2 =    -0.68550190913131D+03
 CCSD(T)
 CCSD(T)= -0.68566522276D+03
 889071\CCSD=-685.5860034\CCSD(T)=-685.6652228\RMSD=4.551e-09\PG=C01 [X
 Normal termination of Gaussian 09 at Wed Aug 25 08:49:16 2021.

 ---------------------------------------------------------
 #P Geom=AllCheck Guess=TCheck SCRF=Check MP4=FrzG4/GTBas2
 ---------------------------------------------------------

 Structure from the checkpoint file:  "/public/home/users/caep010/.cache/gau_scr/Gau-101331.chk"
 ------
 KAXLOK
 ------
 Charge =  0 Multiplicity = 1

 SCF Done:  E(RHF) =  -683.467872627     A.U. after   15 cycles
 E2 =    -0.2078308783D+01 EUMP2 =    -0.68554618140927D+03
 Normal termination of Gaussian 09 at Wed Aug 25 10:31:37 2021.

 ---------------------------------------------------------
 #P Geom=AllCheck Guess=TCheck SCRF=Check MP4=FrzG4/GTBas3
 ---------------------------------------------------------

 Structure from the checkpoint file:  "/public/home/users/caep010/.cache/gau_scr/Gau-101331.chk"
 ------
 KAXLOK
 ------
 Charge =  0 Multiplicity = 1

 SCF Done:  E(RHF) =  -683.525710415     A.U. after   12 cycles
 E2 =    -0.2501363824D+01 EUMP2 =    -0.68602707423895D+03
 Normal termination of Gaussian 09 at Thu Aug 26 08:20:14 2021.

 -----------------------------------------------------------
 #P Geom=AllCheck Guess=TCheck SCRF=Check MP2=Full/GTLargeXP
 -----------------------------------------------------------

 Structure from the checkpoint file:  "/public/home/users/caep010/.cache/gau_scr/Gau-101331.chk"
 ------
 KAXLOK
 ------
 Charge =  0 Multiplicity = 1

 SCF Done:  E(RHF) =  -683.689498364     A.U. after   13 cycles
 E2 =    -0.3271542559D+01 EUMP2 =    -0.68696104092332D+03
 Normal termination of Gaussian 09 at Thu Aug 26 08:48:01 2021.
 SCF Done:  E(RHF) =  -683.743292073     A.U. after   10 cycles
 Normal termination of Gaussian 09 at Thu Aug 26 08:59:45 2021.

                         Standard orientation:
 ---------------------------------------------------------------------
 Center     Atomic      Atomic             Coordinates (Angstroms)
 Number     Number       Type             X           Y           Z
 ---------------------------------------------------------------------
      1          6           0       -0.796562   -2.179836    0.261381
      2          6           0       -2.143341   -2.530631   -0.381461
      3          6           0       -2.938081   -1.227087   -0.240302
      4          7           0       -0.618916   -0.761249   -0.062999
      5          1           0       -0.827957   -2.342942    1.347675
      6          6           0       -1.890517   -0.124137   -0.465421
      7          6           0       -2.215222    1.143977    0.320221
      8          6           0        0.561189   -0.122155   -0.226405
      9          1           0       -2.625773   -3.385055    0.097971
     10          8           0       -1.373122    2.183087   -0.112563
     11          6           0        1.820474   -0.486342    0.136594
     12          6           0        2.314251   -1.632742    0.967147
     13          7           0        2.860889    0.423546   -0.301012
     14          8           0        2.577790    1.420241   -0.972405
     15          8           0        4.015301    0.138853    0.030421
     16          6           0       -1.526257    3.376474    0.623463
     17          1           0        0.031257   -2.766231   -0.142986
     18          1           0       -1.997763   -2.774011   -1.439059
     19          1           0       -2.549853    3.773606    0.540318
     20          1           0       -1.298008    3.227112    1.689618
     21          1           0        1.486513   -2.168293    1.431317
     22          1           0        2.907533   -2.344995    0.383042
     23          1           0        2.969702   -1.263629    1.760230
     24          1           0        0.480318    0.840285   -0.717390
     25          1           0       -3.274050    1.408249    0.151955
     26          1           0       -2.088127    0.952242    1.399251
     27          1           0       -1.836885    0.151952   -1.527451
     28          1           0       -3.350482   -1.144957    0.772969
     29          1           0       -0.825834    4.103721    0.208588
     30          1           0       -3.769760   -1.145694   -0.942889
 ---------------------------------------------------------------------

 SCF Done:  E(RHF) =  -683.754313005     A.U. after    8 cycles

 The electronic state is 1-A.
 Alpha  occ. eigenvalues --  -20.57033 -20.56057 -20.55338 -15.81380 -15.59906
 Alpha  occ. eigenvalues --  -11.29980 -11.29498 -11.28816 -11.28254 -11.28115
 Alpha  occ. eigenvalues --  -11.26052 -11.25138 -11.24921 -11.22543  -1.55911
 Alpha  occ. eigenvalues --   -1.39544  -1.35171  -1.29213  -1.12949  -1.07711
 Alpha  occ. eigenvalues --   -1.05298  -0.96616  -0.95037  -0.93032  -0.88526
 Alpha  occ. eigenvalues --   -0.83662  -0.81352  -0.76162  -0.72655  -0.71820
 Alpha  occ. eigenvalues --   -0.69142  -0.68282  -0.67435  -0.66982  -0.66767
 Alpha  occ. eigenvalues --   -0.63527  -0.60633  -0.59739  -0.58024  -0.57351
 Alpha  occ. eigenvalues --   -0.56299  -0.55919  -0.55062  -0.52513  -0.50848
 Alpha  occ. eigenvalues --   -0.50446  -0.49793  -0.49199  -0.46394  -0.45744
 Alpha  occ. eigenvalues --   -0.45045  -0.44016  -0.42161  -0.31679
 Alpha virt. eigenvalues --    0.02068   0.02906   0.03228   0.03747   0.04525
 Alpha virt. eigenvalues --    0.05137   0.05368   0.05561   0.06231   0.06931
 Alpha virt. eigenvalues --    0.07089   0.07784   0.08360   0.08391   0.08552

 Mulliken charges:
               1
     1  C   -0.321098
     2  C   -0.323065
     3  C   -0.355020
     4  N   -0.099020
     5  H    0.168426
     6  C   -0.038183
     7  C   -0.167274
     8  C   -0.018379
     9  H    0.183357
    10  O   -0.276773
    11  C    0.017656
    12  C   -0.593688
    13  N    0.587994
    14  O   -0.505546
    15  O   -0.466290
    16  C   -0.393296
    17  H    0.202419
    18  H    0.172011
    19  H    0.153792
    20  H    0.155245
    21  H    0.176394
    22  H    0.187482
    23  H    0.205185
    24  H    0.285174
    25  H    0.160932
    26  H    0.146520
    27  H    0.202174
    28  H    0.174289
    29  H    0.195104
    30  H    0.183476
 Sum of Mulliken charges =  -0.00000

 Dipole moment (field-independent basis, Debye):
    X=             -8.2513    Y=             -2.9542    Z=              1.9037  Tot=              8.9686
 Quadrupole moment (field-independent basis, Debye-Ang):
   XX=           -101.1337   YY=            -78.4984   ZZ=            -84.6667
   XY=             -6.6050   XZ=              3.0158   YZ=              4.2192

 Normal termination of Gaussian 09 at Thu Aug 26 10:13:05 2021.
