 Gaussian 09, Revision E.01,
 Gaussian 09:  ES64L-G09RevE.01 30-Nov-2015

 ----------------
 #P G4 OPT=calcfc
 ----------------

 ------
 KOVHAE
 ------
 Symbolic Z-matrix:
 Charge =  0 Multiplicity = 1

 SCF Done:  E(RB3LYP) =  -675.656676303     A.U. after   15 cycles
 SCF Done:  E(RB3LYP) =  -675.742073065     A.U. after   16 cycles
 SCF Done:  E(RB3LYP) =  -675.754550139     A.U. after   17 cycles
 SCF Done:  E(RB3LYP) =  -675.767152218     A.U. after   17 cycles
 SCF Done:  E(RB3LYP) =  -675.731515101     A.U. after   16 cycles
 SCF Done:  E(RB3LYP) =  -675.777560637     A.U. after   11 cycles
 SCF Done:  E(RB3LYP) =  -675.780955857     A.U. after   14 cycles
 SCF Done:  E(RB3LYP) =  -675.780128562     A.U. after   15 cycles
 SCF Done:  E(RB3LYP) =  -675.781903533     A.U. after   11 cycles
 SCF Done:  E(RB3LYP) =  -675.756052831     A.U. after   17 cycles
 SCF Done:  E(RB3LYP) =  -675.783257999     A.U. after   12 cycles
 SCF Done:  E(RB3LYP) =  -675.783260554     A.U. after    9 cycles
 SCF Done:  E(RB3LYP) =  -675.783260744     A.U. after    9 cycles
 Optimization completed.
    -- Stationary point found.
 Normal termination of Gaussian 09 at Wed Aug 25 23:59:18 2021.

 ----------------------------------------------------------
 #P Geom=AllCheck Guess=TCheck SCRF=Check B3LYP/GTBas3 Freq
 ----------------------------------------------------------

 Structure from the checkpoint file:  "/public/home/users/caep010/.cache/gau_scr/Gau-34570.chk"
 ------
 KOVHAE
 ------
 Charge =  0 Multiplicity = 1

 SCF Done:  E(RB3LYP) =  -675.783260744     A.U. after    1 cycles

  Exact polarizability: 130.158   0.002  96.587   0.002   1.856  50.403
 Approx polarizability: 216.018   0.003 172.538   0.012   6.543  83.282

                      1                      2                      3
                      A                      A                      A
 Frequencies --     60.5502                78.4053               107.9935
 Red. masses --     11.5090                 7.3568                 4.7488
 Frc consts  --      0.0249                 0.0266                 0.0326
 IR Inten    --      0.6797                 0.0003                 0.0023

                      4                      5                      6
                      A                      A                      A
 Frequencies --    129.7062               180.3607               228.2403
 Red. masses --      4.7752                 2.3756                 5.4318
 Frc consts  --      0.0473                 0.0455                 0.1667
 IR Inten    --      1.2479                 3.9719                 0.1960

                      7                      8                      9
                      A                      A                      A
 Frequencies --    262.4486               288.4651               359.5844
 Red. masses --      8.2815                12.2397                 7.6357
 Frc consts  --      0.3361                 0.6001                 0.5817
 IR Inten    --     13.9183                 8.6290                 2.4129

                     10                     11                     12
                      A                      A                      A
 Frequencies --    416.2075               448.2869               462.6196
 Red. masses --      8.2146                12.7622                15.4182
 Frc consts  --      0.8384                 1.5111                 1.9442
 IR Inten    --     14.9319                 1.5973                 1.6824

                     13                     14                     15
                      A                      A                      A
 Frequencies --    629.1737               642.5306               700.8724
 Red. masses --      1.1541                 1.1503                 4.8112
 Frc consts  --      0.2692                 0.2798                 1.3924
 IR Inten    --      5.6314               164.0019                 0.4421

                     16                     17                     18
                      A                      A                      A
 Frequencies --    719.9686               749.2138               778.6413
 Red. masses --      2.6427                12.5650                12.4861
 Frc consts  --      0.8071                 4.1555                 4.4602
 IR Inten    --     25.5226                 0.0081                29.6825

                     19                     20                     21
                      A                      A                      A
 Frequencies --    799.0252               821.9563               900.6997
 Red. masses --     11.2048                 8.8089                 1.6320
 Frc consts  --      4.2148                 3.5064                 0.7801
 IR Inten    --     36.4451                14.3065                 1.2458

                     22                     23                     24
                      A                      A                      A
 Frequencies --    922.4118               963.6873              1025.5799
 Red. masses --      5.5985                 3.2369                 2.1922
 Frc consts  --      2.8065                 1.7711                 1.3585
 IR Inten    --     18.3341                13.1504                 6.3189

                     25                     26                     27
                      A                      A                      A
 Frequencies --   1054.1954              1126.2546              1129.3515
 Red. masses --      2.9592                 2.0211                 1.7902
 Frc consts  --      1.9376                 1.5104                 1.3453
 IR Inten    --      3.1784                 0.9955                18.7526

                     28                     29                     30
                      A                      A                      A
 Frequencies --   1138.8657              1217.2742              1237.2191
 Red. masses --      6.1555                 1.1286                 1.3473
 Frc consts  --      4.7039                 0.9853                 1.2151
 IR Inten    --     41.9719                 9.8718                 0.0371

                     31                     32                     33
                      A                      A                      A
 Frequencies --   1263.2340              1311.9312              1320.5829
 Red. masses --      4.0779                 2.4348                 1.6639
 Frc consts  --      3.8340                 2.4691                 1.7097
 IR Inten    --    368.3763                11.6094                57.9965

                     34                     35                     36
                      A                      A                      A
 Frequencies --   1357.1060              1382.7109              1413.4515
 Red. masses --      2.4143                 2.4061                 2.5699
 Frc consts  --      2.6198                 2.7104                 3.0250
 IR Inten    --    197.9628               160.5686                23.4314

                     37                     38                     39
                      A                      A                      A
 Frequencies --   1502.5417              1528.1375              1542.7653
 Red. masses --      1.4500                 1.1089                 2.5071
 Frc consts  --      1.9288                 1.5257                 3.5158
 IR Inten    --     18.5990                29.2592                28.9959

                     40                     41                     42
                      A                      A                      A
 Frequencies --   1589.3498              1631.6384              1636.0146
 Red. masses --      7.1004                 6.0903                 6.0266
 Frc consts  --     10.5674                 9.5530                 9.5039
 IR Inten    --    134.9497                12.5852              1096.4040

                     43                     44                     45
                      A                      A                      A
 Frequencies --   3023.1818              3029.1486              3104.2350
 Red. masses --      1.0729                 1.0659                 1.0931
 Frc consts  --      5.7772                 5.7625                 6.2064
 IR Inten    --     43.5822                40.0778                23.4447

                     46                     47                     48
                      A                      A                      A
 Frequencies --   3112.8989              3562.9219              3570.9589
 Red. masses --      1.1001                 1.0763                 1.0814
 Frc consts  --      6.2809                 8.0499                 8.1244
 IR Inten    --     17.9506               216.0828                99.8273

 - Thermochemistry -
 -------------------
 Temperature   298.150 Kelvin.  Pressure   1.00000 Atm.
 Atom     1 has atomic number  6 and mass  12.00000

 Molecular mass:   174.03890 amu.
 Principal axes and moments of inertia in atomic units:
                           1         2         3
     Eigenvalues --  1173.223172232.717843325.29810
           X            1.00000  -0.00000  -0.00000
           Y            0.00000   0.99999   0.00547
           Z            0.00000  -0.00547   0.99999
 This molecule is an asymmetric top.
 Rotational symmetry number  1.
 Warning -- assumption of classical behavior for rotation
           may cause significant error
 Rotational temperatures (Kelvin)      0.07383     0.03879     0.02605
 Rotational constants (GHZ):           1.53828     0.80832     0.54273
 Zero-point vibrational energy     337721.3 (Joules/Mol)
                                   80.71734 (Kcal/Mol)
 Warning -- explicit consideration of  12 degrees of freedom as
           vibrations may cause significant error
 Vibrational temperatures:     87.12   112.81   155.38   186.62   259.50
          (Kelvin)            328.39   377.60   415.04   517.36   598.83
                              644.98   665.61   905.24   924.46  1008.40
                             1035.87  1077.95  1120.29  1149.62  1182.61
                             1295.90  1327.14  1386.53  1475.58  1516.75
                             1620.43  1624.88  1638.57  1751.38  1780.08
                             1817.51  1887.57  1900.02  1952.57  1989.41
                             2033.64  2161.82  2198.65  2219.69  2286.72
                             2347.56  2353.86  4349.68  4358.26  4466.30
                             4478.76  5126.24  5137.81

 Zero-point correction=                           0.128631 (Hartree/Particle)
 Thermal correction to Energy=                    0.138845
 Thermal correction to Enthalpy=                  0.139789
 Thermal correction to Gibbs Free Energy=         0.091948
 Sum of electronic and zero-point Energies=           -675.654629
 Sum of electronic and thermal Energies=              -675.644416
 Sum of electronic and thermal Enthalpies=            -675.643472
 Sum of electronic and thermal Free Energies=         -675.691312

                     E (Thermal)             CV                S
                      KCal/Mol        Cal/Mol-Kelvin    Cal/Mol-Kelvin
 Total                   87.126             37.115            100.689
 Electronic               0.000              0.000              0.000
 Translational            0.889              2.981             41.370
 Rotational               0.889              2.981             30.544
 Vibrational             85.349             31.153             28.775
 Vibration     1          0.597              1.973              4.439
 Vibration     2          0.600              1.964              3.930
 Vibration     3          0.606              1.943              3.305
 Vibration     4          0.612              1.924              2.950
 Vibration     5          0.629              1.866              2.325
 Vibration     6          0.651              1.798              1.893
 Vibration     7          0.670              1.742              1.645
 Vibration     8          0.685              1.695              1.483
 Vibration     9          0.734              1.556              1.124
 Vibration    10          0.779              1.435              0.905
 Vibration    11          0.807              1.365              0.801
 Vibration    12          0.820              1.333              0.759

 Optimization completed.
    -- Stationary point found.
 Normal termination of Gaussian 09 at Thu Aug 26 00:01:41 2021.

 -----------------------------------------------------------------
 #P Geom=AllCheck Guess=TCheck SCRF=Check CCSD(T,E4T,FrzG4)/GTBas1
 -----------------------------------------------------------------

 Structure from the checkpoint file:  "/public/home/users/caep010/.cache/gau_scr/Gau-34570.chk"
 ------
 KOVHAE
 ------
 Charge =  0 Multiplicity = 1

 SCF Done:  E(RHF) =  -671.935210683     A.U. after   15 cycles
 E2 =    -0.1917470641D+01 EUMP2 =    -0.67385268132394D+03
 CCSD(T)
 CCSD(T)= -0.67394872796D+03
 9712921\MP4SDQ=-673.8760984\CCSD=-673.8681965\CCSD(T)=-673.948728\RMSD
 Normal termination of Gaussian 09 at Thu Aug 26 01:03:14 2021.

 ---------------------------------------------------------
 #P Geom=AllCheck Guess=TCheck SCRF=Check MP4=FrzG4/GTBas2
 ---------------------------------------------------------

 Structure from the checkpoint file:  "/public/home/users/caep010/.cache/gau_scr/Gau-34570.chk"
 ------
 KOVHAE
 ------
 Charge =  0 Multiplicity = 1

 SCF Done:  E(RHF) =  -671.954676499     A.U. after   14 cycles
 E2 =    -0.1945583607D+01 EUMP2 =    -0.67390026010573D+03
 Normal termination of Gaussian 09 at Thu Aug 26 01:25:44 2021.

 ---------------------------------------------------------
 #P Geom=AllCheck Guess=TCheck SCRF=Check MP4=FrzG4/GTBas3
 ---------------------------------------------------------

 Structure from the checkpoint file:  "/public/home/users/caep010/.cache/gau_scr/Gau-34570.chk"
 ------
 KOVHAE
 ------
 Charge =  0 Multiplicity = 1

 SCF Done:  E(RHF) =  -672.008891856     A.U. after   13 cycles
 E2 =    -0.2298409631D+01 EUMP2 =    -0.67430730148638D+03
 Normal termination of Gaussian 09 at Thu Aug 26 03:54:36 2021.

 -----------------------------------------------------------
 #P Geom=AllCheck Guess=TCheck SCRF=Check MP2=Full/GTLargeXP
 -----------------------------------------------------------

 Structure from the checkpoint file:  "/public/home/users/caep010/.cache/gau_scr/Gau-34570.chk"
 ------
 KOVHAE
 ------
 Charge =  0 Multiplicity = 1

 SCF Done:  E(RHF) =  -672.182639697     A.U. after   18 cycles
 E2 =    -0.2982842626D+01 EUMP2 =    -0.67516548232251D+03
 Normal termination of Gaussian 09 at Thu Aug 26 04:14:16 2021.
 SCF Done:  E(RHF) =  -672.236600906     A.U. after   11 cycles
 Normal termination of Gaussian 09 at Thu Aug 26 04:20:12 2021.

                         Standard orientation:
 ---------------------------------------------------------------------
 Center     Atomic      Atomic             Coordinates (Angstroms)
 Number     Number       Type             X           Y           Z
 ---------------------------------------------------------------------
      1          6           0        0.664156    0.000007   -0.000217
      2          7           0        1.393465   -1.229126    0.074319
      3          6           0       -0.747895    0.000017   -0.000059
      4          7           0       -1.525106    1.099419   -0.038172
      5          6           0       -2.929125    0.752549    0.169880
      6          1           0       -3.226187    0.929995    1.211382
      7          6           0       -2.929171   -0.752476   -0.169691
      8          7           0       -1.525164   -1.099425    0.038333
      9          8           0        0.770709   -2.278863   -0.191339
     10          8           0        2.559788   -1.226005    0.424298
     11          7           0        1.393547    1.229072   -0.074378
     12          8           0        0.770691    2.278913    0.190742
     13          8           0        2.560069    1.225894   -0.423723
     14          1           0       -1.087568    1.985366    0.181387
     15          1           0       -3.583533    1.333530   -0.482765
     16          1           0       -3.226318   -0.929946   -1.211166
     17          1           0       -3.583578   -1.333390    0.483018
     18          1           0       -1.087858   -1.985232   -0.181873
 ---------------------------------------------------------------------

 SCF Done:  E(RHF) =  -672.247421556     A.U. after    9 cycles

 The electronic state is 1-A.
 Alpha  occ. eigenvalues --  -20.60182 -20.60181 -20.58890 -20.58890 -15.86282
 Alpha  occ. eigenvalues --  -15.86281 -15.62631 -15.62628 -11.40716 -11.33575
 Alpha  occ. eigenvalues --  -11.31744 -11.31685  -1.61249  -1.59417  -1.40102
 Alpha  occ. eigenvalues --   -1.38840  -1.37788  -1.22906  -1.17365  -1.06986
 Alpha  occ. eigenvalues --   -0.99393  -0.90690  -0.90388  -0.86519  -0.79375
 Alpha  occ. eigenvalues --   -0.78184  -0.74622  -0.72653  -0.72572  -0.71714
 Alpha  occ. eigenvalues --   -0.70286  -0.68614  -0.66364  -0.64075  -0.60256
 Alpha  occ. eigenvalues --   -0.57902  -0.57234  -0.52662  -0.50563  -0.49088
 Alpha  occ. eigenvalues --   -0.48413  -0.45856  -0.45473  -0.42460  -0.38115
 Alpha virt. eigenvalues --    0.01851   0.02697   0.03359   0.04412   0.05595
 Alpha virt. eigenvalues --    0.06009   0.06027   0.06455   0.06687   0.06935
 Alpha virt. eigenvalues --    0.07555   0.08812   0.09373   0.09672   0.10626

 Mulliken charges:
               1
     1  C    0.014364
     2  N    0.509846
     3  C    0.476819
     4  N   -0.429992
     5  C   -0.240115
     6  H    0.180449
     7  C   -0.240171
     8  N   -0.430000
     9  O   -0.495579
    10  O   -0.378778
    11  N    0.509856
    12  O   -0.495658
    13  O   -0.378774
    14  H    0.403556
    15  H    0.205118
    16  H    0.180442
    17  H    0.205119
    18  H    0.403498
 Sum of Mulliken charges =  -0.00000

 Dipole moment (field-independent basis, Debye):
    X=             -9.4228    Y=              0.0004    Z=             -0.0005  Tot=              9.4228
 Quadrupole moment (field-independent basis, Debye-Ang):
   XX=            -66.4935   YY=            -77.7934   ZZ=            -67.5698
   XY=             -0.0011   XZ=             -0.0006   YZ=              1.3765

 Normal termination of Gaussian 09 at Thu Aug 26 05:01:17 2021.
