 Gaussian 09, Revision E.01,
 Gaussian 09:  ES64L-G09RevE.01 30-Nov-2015

 ----------------
 #P G4 OPT=calcfc
 ----------------

 --------
 KIBSAS01
 --------
 Symbolic Z-matrix:
 Charge =  0 Multiplicity = 1

 SCF Done:  E(RB3LYP) =  -782.785033339     A.U. after   15 cycles
 SCF Done:  E(RB3LYP) =  -782.833131215     A.U. after   16 cycles
 SCF Done:  E(RB3LYP) =  -782.836337981     A.U. after   17 cycles
 SCF Done:  E(RB3LYP) =  -782.831568539     A.U. after   16 cycles
 SCF Done:  E(RB3LYP) =  -782.838556977     A.U. after   13 cycles
 SCF Done:  E(RB3LYP) =  -782.839037647     A.U. after   16 cycles
 SCF Done:  E(RB3LYP) =  -782.839273584     A.U. after   14 cycles
 SCF Done:  E(RB3LYP) =  -782.839314019     A.U. after   11 cycles
 SCF Done:  E(RB3LYP) =  -782.839289725     A.U. after   15 cycles
 SCF Done:  E(RB3LYP) =  -782.839444203     A.U. after   11 cycles
 SCF Done:  E(RB3LYP) =  -782.839581529     A.U. after   11 cycles
 SCF Done:  E(RB3LYP) =  -782.839581925     A.U. after   10 cycles
 SCF Done:  E(RB3LYP) =  -782.839582122     A.U. after    8 cycles
 Optimization completed.
    -- Stationary point found.
 Normal termination of Gaussian 09 at Fri Aug 27 04:31:48 2021.

 ----------------------------------------------------------
 #P Geom=AllCheck Guess=TCheck SCRF=Check B3LYP/GTBas3 Freq
 ----------------------------------------------------------

 Structure from the checkpoint file:  "/public/home/users/caep010/.cache/gau_scr/Gau-123888.chk"
 --------
 KIBSAS01
 --------
 Charge =  0 Multiplicity = 1

 SCF Done:  E(RB3LYP) =  -782.839582122     A.U. after    1 cycles

  Exact polarizability: 125.530  -8.867  94.301  -6.502  -5.540  54.584
 Approx polarizability: 206.514 -11.038 169.308 -28.972 -14.505 105.172

                      1                      2                      3
                      A                      A                      A
 Frequencies --     26.5612                58.2628                83.9093
 Red. masses --     11.2892                10.5401                 8.6836
 Frc consts  --      0.0047                 0.0211                 0.0360
 IR Inten    --      0.9918                 1.6675                 2.1404

                      4                      5                      6
                      A                      A                      A
 Frequencies --    118.5321               187.3320               201.2934
 Red. masses --      9.9486                12.0225                10.6581
 Frc consts  --      0.0824                 0.2486                 0.2544
 IR Inten    --      0.3457                 0.9093                 1.0330

                      7                      8                      9
                      A                      A                      A
 Frequencies --    287.6938               325.8102               349.9842
 Red. masses --      7.4041                 5.3594                 8.3586
 Frc consts  --      0.3611                 0.3352                 0.6032
 IR Inten    --     17.4253                10.2067                17.8531

                     10                     11                     12
                      A                      A                      A
 Frequencies --    376.2908               401.3440               413.0048
 Red. masses --      1.2980                 7.8551                 1.3992
 Frc consts  --      0.1083                 0.7455                 0.1406
 IR Inten    --    163.4272                34.2185                68.7784

                     13                     14                     15
                      A                      A                      A
 Frequencies --    444.6516               486.9724               593.9106
 Red. masses --      3.7212                 7.4211                12.1262
 Frc consts  --      0.4335                 1.0369                 2.5201
 IR Inten    --     20.6438                 1.1607                 2.1327

                     16                     17                     18
                      A                      A                      A
 Frequencies --    650.8696               692.3023               742.5123
 Red. masses --     13.9171                12.2428                11.0187
 Frc consts  --      3.4736                 3.4572                 3.5792
 IR Inten    --      4.5025                 1.2687                 0.8751

                     19                     20                     21
                      A                      A                      A
 Frequencies --    761.3506               785.8528               815.4394
 Red. masses --      6.9948                12.5560                12.6159
 Frc consts  --      2.3889                 4.5686                 4.9426
 IR Inten    --      2.3287                17.1186                 1.7775

                     22                     23                     24
                      A                      A                      A
 Frequencies --    842.4629               920.2878               923.0154
 Red. masses --     14.9150                13.7248                11.6824
 Frc consts  --      6.2370                 6.8486                 5.8641
 IR Inten    --     63.9282                34.1778                12.5884

                     25                     26                     27
                      A                      A                      A
 Frequencies --    944.5983               988.8267              1018.4187
 Red. masses --     14.1039                10.8103                 4.0801
 Frc consts  --      7.4145                 6.2277                 2.4933
 IR Inten    --      2.3275                25.0911                10.6178

                     28                     29                     30
                      A                      A                      A
 Frequencies --   1070.0334              1103.6908              1164.1760
 Red. masses --      7.7222                 3.0402                 8.9318
 Frc consts  --      5.2094                 2.1820                 7.1323
 IR Inten    --     26.8194                 2.1978                36.6876

                     31                     32                     33
                      A                      A                      A
 Frequencies --   1345.5061              1385.0640              1414.0600
 Red. masses --     11.1511                 7.5807                 8.8479
 Frc consts  --     11.8943                 8.5684                10.4238
 IR Inten    --     86.3010                33.2936                39.1627

                     34                     35                     36
                      A                      A                      A
 Frequencies --   1426.2834              1500.0664              1575.2287
 Red. masses --     10.5305                 9.3449                 5.1566
 Frc consts  --     12.6215                12.3893                 7.5388
 IR Inten    --     43.9483               104.6999                22.6607

                     37                     38                     39
                      A                      A                      A
 Frequencies --   1601.2877              1626.7630              1665.0973
 Red. masses --      1.7043                 7.6978                14.3287
 Frc consts  --      2.5747                12.0023                23.4065
 IR Inten    --     31.8956                67.0250               248.6723

                     40                     41                     42
                      A                      A                      A
 Frequencies --   1698.0788              3610.2800              3729.1837
 Red. masses --      4.5416                 1.0456                 1.1032
 Frc consts  --      7.7158                 8.0296                 9.0392
 IR Inten    --    472.4204               112.2637                72.1702

 - Thermochemistry -
 -------------------
 Temperature   298.150 Kelvin.  Pressure   1.00000 Atm.
 Atom     1 has atomic number  6 and mass  12.00000

 Molecular mass:   198.01375 amu.
 Principal axes and moments of inertia in atomic units:
                           1         2         3
     Eigenvalues --  1438.426143490.513744628.09473
           X            0.99981  -0.01877   0.00423
           Y            0.01880   0.99981  -0.00602
           Z           -0.00412   0.00610   0.99997
 This molecule is an asymmetric top.
 Rotational symmetry number  1.
 Warning -- assumption of classical behavior for rotation
           may cause significant error
 Rotational temperatures (Kelvin)      0.06021     0.02481     0.01871
 Rotational constants (GHZ):           1.25466     0.51704     0.38995
 Zero-point vibrational energy     241384.2 (Joules/Mol)
                                   57.69221 (Kcal/Mol)
 Warning -- explicit consideration of  15 degrees of freedom as
           vibrations may cause significant error
 Vibrational temperatures:     38.22    83.83   120.73   170.54   269.53
          (Kelvin)            289.62   413.93   468.77   503.55   541.40
                              577.44   594.22   639.75   700.64   854.50
                              936.45   996.07  1068.31  1095.41  1130.67
                             1173.23  1212.11  1324.09  1328.01  1359.06
                             1422.70  1465.28  1539.54  1587.96  1674.99
                             1935.88  1992.80  2034.51  2052.10  2158.26
                             2266.40  2303.89  2340.55  2395.70  2443.15
                             5194.38  5365.46

 Zero-point correction=                           0.091938 (Hartree/Particle)
 Thermal correction to Energy=                    0.102869
 Thermal correction to Enthalpy=                  0.103813
 Thermal correction to Gibbs Free Energy=         0.053156
 Sum of electronic and zero-point Energies=           -782.747644
 Sum of electronic and thermal Energies=              -782.736713
 Sum of electronic and thermal Enthalpies=            -782.735769
 Sum of electronic and thermal Free Energies=         -782.786426

                     E (Thermal)             CV                S
                      KCal/Mol        Cal/Mol-Kelvin    Cal/Mol-Kelvin
 Total                   64.551             39.343            106.616
 Electronic               0.000              0.000              0.000
 Translational            0.889              2.981             41.754
 Rotational               0.889              2.981             31.519
 Vibrational             62.774             33.381             33.343
 Vibration     1          0.593              1.984              6.071
 Vibration     2          0.596              1.974              4.515
 Vibration     3          0.601              1.960              3.797
 Vibration     4          0.609              1.934              3.124
 Vibration     5          0.632              1.857              2.254
 Vibration     6          0.638              1.838              2.121
 Vibration     7          0.685              1.697              1.487
 Vibration     8          0.710              1.624              1.281
 Vibration     9          0.727              1.575              1.166
 Vibration    10          0.747              1.521              1.054
 Vibration    11          0.767              1.467              0.958
 Vibration    12          0.777              1.442              0.916
 Vibration    13          0.804              1.373              0.812
 Vibration    14          0.843              1.279              0.692
 Vibration    15          0.952              1.045              0.460

 Optimization completed.
    -- Stationary point found.
 Normal termination of Gaussian 09 at Fri Aug 27 04:34:35 2021.

 -----------------------------------------------------------------
 #P Geom=AllCheck Guess=TCheck SCRF=Check CCSD(T,E4T,FrzG4)/GTBas1
 -----------------------------------------------------------------

 Structure from the checkpoint file:  "/public/home/users/caep010/.cache/gau_scr/Gau-123888.chk"
 --------
 KIBSAS01
 --------
 Charge =  0 Multiplicity = 1

 SCF Done:  E(RHF) =  -778.474499239     A.U. after   16 cycles
 E2 =    -0.2229514732D+01 EUMP2 =    -0.78070401397054D+03
 CCSD(T)
 CCSD(T)= -0.78080172494D+03
 780.710355\CCSD=-780.7006677\CCSD(T)=-780.8017249\RMSD=7.636e-09\PG=C0
 Normal termination of Gaussian 09 at Fri Aug 27 06:15:50 2021.

 ---------------------------------------------------------
 #P Geom=AllCheck Guess=TCheck SCRF=Check MP4=FrzG4/GTBas2
 ---------------------------------------------------------

 Structure from the checkpoint file:  "/public/home/users/caep010/.cache/gau_scr/Gau-123888.chk"
 --------
 KIBSAS01
 --------
 Charge =  0 Multiplicity = 1

 SCF Done:  E(RHF) =  -778.495978874     A.U. after   20 cycles
 E2 =    -0.2259329599D+01 EUMP2 =    -0.78075530847301D+03
 Normal termination of Gaussian 09 at Fri Aug 27 06:56:31 2021.

 ---------------------------------------------------------
 #P Geom=AllCheck Guess=TCheck SCRF=Check MP4=FrzG4/GTBas3
 ---------------------------------------------------------

 Structure from the checkpoint file:  "/public/home/users/caep010/.cache/gau_scr/Gau-123888.chk"
 --------
 KIBSAS01
 --------
 Charge =  0 Multiplicity = 1

 SCF Done:  E(RHF) =  -778.554391404     A.U. after   13 cycles
 E2 =    -0.2628347618D+01 EUMP2 =    -0.78118273902182D+03
 Normal termination of Gaussian 09 at Fri Aug 27 10:48:42 2021.

 -----------------------------------------------------------
 #P Geom=AllCheck Guess=TCheck SCRF=Check MP2=Full/GTLargeXP
 -----------------------------------------------------------

 Structure from the checkpoint file:  "/public/home/users/caep010/.cache/gau_scr/Gau-123888.chk"
 --------
 KIBSAS01
 --------
 Charge =  0 Multiplicity = 1

 SCF Done:  E(RHF) =  -778.753680229     A.U. after   15 cycles
 E2 =    -0.3414478416D+01 EUMP2 =    -0.78216815864500D+03
 Normal termination of Gaussian 09 at Fri Aug 27 11:00:31 2021.
 SCF Done:  E(RHF) =  -778.814753968     A.U. after   10 cycles
 Normal termination of Gaussian 09 at Fri Aug 27 11:07:07 2021.

                         Standard orientation:
 ---------------------------------------------------------------------
 Center     Atomic      Atomic             Coordinates (Angstroms)
 Number     Number       Type             X           Y           Z
 ---------------------------------------------------------------------
      1          6           0       -0.821596   -0.619466    0.046061
      2          6           0        0.618136   -0.855020   -0.038164
      3          7           0       -1.615616   -1.441276    0.682916
      4          7           0       -1.411593    0.464184   -0.546013
      5          8           0       -2.878331   -0.842028    0.492626
      6          7           0        1.142512   -2.042084   -0.208131
      7          8           0        2.495636   -1.848797   -0.268899
      8          7           0        2.829214   -0.539887   -0.160988
      9          6           0        1.694768    0.078261   -0.017719
     10          7           0        1.656320    1.518845    0.212070
     11          8           0        0.804065    1.897736    1.000698
     12          8           0        2.471941    2.202572   -0.376418
     13          6           0       -2.666466    0.264166   -0.235003
     14          7           0       -3.736880    1.000766   -0.592926
     15          1           0       -3.548063    1.927069   -0.939061
     16          1           0       -4.595170    0.865589   -0.084531
 ---------------------------------------------------------------------

 SCF Done:  E(RHF) =  -778.826668354     A.U. after    7 cycles

 The electronic state is 1-A.
 Alpha  occ. eigenvalues --  -20.73403 -20.67852 -20.63847 -20.63648 -15.89395
 Alpha  occ. eigenvalues --  -15.71625 -15.70531 -15.65275 -15.63211 -15.58941
 Alpha  occ. eigenvalues --  -11.42549 -11.38829 -11.36208 -11.35876  -1.64655
 Alpha  occ. eigenvalues --   -1.60104  -1.54772  -1.44075  -1.30278  -1.29186
 Alpha  occ. eigenvalues --   -1.27201  -1.23795  -1.15917  -1.05481  -0.97209
 Alpha  occ. eigenvalues --   -0.89172  -0.86852  -0.85931  -0.81952  -0.78986
 Alpha  occ. eigenvalues --   -0.76802  -0.75412  -0.74191  -0.73224  -0.71804
 Alpha  occ. eigenvalues --   -0.70379  -0.66418  -0.62696  -0.58795  -0.55602
 Alpha  occ. eigenvalues --   -0.54889  -0.54742  -0.54327  -0.52941  -0.52141
 Alpha  occ. eigenvalues --   -0.49851  -0.48378  -0.48072  -0.46213  -0.39363
 Alpha virt. eigenvalues --    0.01979   0.02222   0.04234   0.04635   0.04697
 Alpha virt. eigenvalues --    0.05206   0.05693   0.06210   0.06627   0.07713
 Alpha virt. eigenvalues --    0.08022   0.08217   0.08789   0.09426   0.10149

 Mulliken charges:
               1
     1  C    0.296003
     2  C    0.418611
     3  N   -0.251582
     4  N   -0.520500
     5  O   -0.245551
     6  N   -0.158823
     7  O   -0.068401
     8  N   -0.129386
     9  C    0.239036
    10  N    0.507579
    11  O   -0.375768
    12  O   -0.384939
    13  C    0.655150
    14  N   -0.695051
    15  H    0.359731
    16  H    0.353892
 Sum of Mulliken charges =  -0.00000

 Dipole moment (field-independent basis, Debye):
    X=             -4.6140    Y=              1.5729    Z=             -0.7129  Tot=              4.9266
 Quadrupole moment (field-independent basis, Debye-Ang):
   XX=            -65.0362   YY=            -87.4436   ZZ=            -79.2696
   XY=            -13.4882   XZ=              3.4540   YZ=             -0.0003

 Normal termination of Gaussian 09 at Fri Aug 27 11:48:21 2021.
