 Gaussian 09, Revision E.01,
 Gaussian 09:  ES64L-G09RevE.01 30-Nov-2015

 ----------------
 #P G4 OPT=calcfc
 ----------------

 ------
 KASBAH
 ------
 Symbolic Z-matrix:
 Charge =  0 Multiplicity = 1

 SCF Done:  E(RB3LYP) =  -623.556217008     A.U. after   16 cycles
 SCF Done:  E(RB3LYP) =  -623.628208293     A.U. after   14 cycles
 SCF Done:  E(RB3LYP) =  -623.651661683     A.U. after   16 cycles
 SCF Done:  E(RB3LYP) =  -623.651125538     A.U. after   16 cycles
 SCF Done:  E(RB3LYP) =  -623.655056660     A.U. after   12 cycles
 SCF Done:  E(RB3LYP) =  -623.655096639     A.U. after   15 cycles
 SCF Done:  E(RB3LYP) =  -623.655545114     A.U. after   13 cycles
 SCF Done:  E(RB3LYP) =  -623.655733070     A.U. after   13 cycles
 SCF Done:  E(RB3LYP) =  -623.655906687     A.U. after   14 cycles
 SCF Done:  E(RB3LYP) =  -623.655785331     A.U. after   13 cycles
 SCF Done:  E(RB3LYP) =  -623.657333007     A.U. after   10 cycles
 SCF Done:  E(RB3LYP) =  -623.657333128     A.U. after    8 cycles
 SCF Done:  E(RB3LYP) =  -623.657333017     A.U. after    8 cycles
 Optimization completed.
    -- Stationary point found.
 Normal termination of Gaussian 09 at Wed Aug 25 09:18:04 2021.

 ----------------------------------------------------------
 #P Geom=AllCheck Guess=TCheck SCRF=Check B3LYP/GTBas3 Freq
 ----------------------------------------------------------

 Structure from the checkpoint file:  "/public/home/users/caep010/.cache/gau_scr/Gau-145957.chk"
 ------
 KASBAH
 ------
 Charge =  0 Multiplicity = 1

 SCF Done:  E(RB3LYP) =  -623.657333017     A.U. after    1 cycles

  Exact polarizability: 122.676   3.739 126.394   9.595  -1.609  70.950
 Approx polarizability: 178.852  10.870 241.186  12.413 -11.485 125.372

                      1                      2                      3
                      A                      A                      A
 Frequencies --     17.2115                48.7861                56.8652
 Red. masses --      5.3366                 7.7917                 6.2666
 Frc consts  --      0.0009                 0.0109                 0.0119
 IR Inten    --      0.0949                 2.0425                 0.2923

                      4                      5                      6
                      A                      A                      A
 Frequencies --    106.6113               158.4953               173.3540
 Red. masses --     13.7329                 6.0817                10.2120
 Frc consts  --      0.0920                 0.0900                 0.1808
 IR Inten    --      1.7342                 0.8695                 4.9907

                      7                      8                      9
                      A                      A                      A
 Frequencies --    231.7383               311.2926               380.6589
 Red. masses --      6.1665                 6.2928                 2.0792
 Frc consts  --      0.1951                 0.3593                 0.1775
 IR Inten    --      0.5597                 0.8237                 2.2814

                     10                     11                     12
                      A                      A                      A
 Frequencies --    415.2533               466.3359               494.8577
 Red. masses --      2.9822                 5.0276                 4.9092
 Frc consts  --      0.3030                 0.6442                 0.7083
 IR Inten    --      0.0108                 0.8210                 2.7536

                     13                     14                     15
                      A                      A                      A
 Frequencies --    520.1883               555.9836               585.7921
 Red. masses --     11.3544                10.3071                 5.7467
 Frc consts  --      1.8102                 1.8772                 1.1619
 IR Inten    --      6.0051                 1.9379                15.2542

                     16                     17                     18
                      A                      A                      A
 Frequencies --    630.7993               682.0355               719.8538
 Red. masses --      6.1955                 4.9394                 1.6191
 Frc consts  --      1.4525                 1.3538                 0.4943
 IR Inten    --      0.0468                34.3119                45.0727

                     19                     20                     21
                      A                      A                      A
 Frequencies --    759.8326               783.6185               830.5525
 Red. masses --     13.8111                 2.6810                 3.4271
 Frc consts  --      4.6980                 0.9700                 1.3929
 IR Inten    --     12.9127                 4.2505                 3.7020

                     22                     23                     24
                      A                      A                      A
 Frequencies --    849.1409               867.6055               908.4691
 Red. masses --      6.7641                 1.2523                 2.5353
 Frc consts  --      2.8735                 0.5554                 1.2328
 IR Inten    --     18.7195                 0.3798                75.9745

                     25                     26                     27
                      A                      A                      A
 Frequencies --    941.9068               964.0871               999.2599
 Red. masses --      1.4610                 1.3507                 1.2717
 Frc consts  --      0.7637                 0.7397                 0.7482
 IR Inten    --      4.7585                 0.1798                 0.5764

                     28                     29                     30
                      A                      A                      A
 Frequencies --   1015.3431              1029.0325              1052.5001
 Red. masses --      6.1809                 3.3931                 2.2529
 Frc consts  --      3.7543                 2.1169                 1.4704
 IR Inten    --      2.2702               108.5533                 0.7930

                     31                     32                     33
                      A                      A                      A
 Frequencies --   1113.5924              1185.7422              1207.6914
 Red. masses --      1.5750                 1.0923                 1.1532
 Frc consts  --      1.1508                 0.9048                 0.9910
 IR Inten    --      4.5131                 0.0214                 2.1133

                     34                     35                     36
                      A                      A                      A
 Frequencies --   1213.8883              1227.6912              1325.6491
 Red. masses --      2.2932                 2.9365                 5.0092
 Frc consts  --      1.9909                 2.6077                 5.1866
 IR Inten    --      6.5120                21.4410               213.3799

                     37                     38                     39
                      A                      A                      A
 Frequencies --   1331.9722              1351.5914              1367.2764
 Red. masses --      4.2361                 2.1054                 1.3947
 Frc consts  --      4.4280                 2.2661                 1.5362
 IR Inten    --     67.5964                 4.4502                13.9636

                     40                     41                     42
                      A                      A                      A
 Frequencies --   1385.3175              1465.8790              1487.1187
 Red. masses --      1.5335                 1.1163                 2.1742
 Frc consts  --      1.7340                 1.4133                 2.8329
 IR Inten    --     23.8994                27.2369                 7.9775

                     43                     44                     45
                      A                      A                      A
 Frequencies --   1529.0525              1626.7676              1644.1120
 Red. masses --      2.2070                 5.6458                 5.6590
 Frc consts  --      3.0402                 8.8029                 9.0127
 IR Inten    --      6.3164                 1.5787                 0.3015

                     46                     47                     48
                      A                      A                      A
 Frequencies --   1704.7275              2345.8048              3086.6000
 Red. masses --     14.0027                12.6469                 1.0639
 Frc consts  --     23.9757                41.0031                 5.9716
 IR Inten    --    282.3267                58.1046                 7.1914

                     49                     50                     51
                      A                      A                      A
 Frequencies --   3154.3551              3172.3912              3178.9486
 Red. masses --      1.1012                 1.0859                 1.0864
 Frc consts  --      6.4558                 6.4391                 6.4688
 IR Inten    --      0.0999                 2.5830                 0.8263

                     52                     53                     54
                      A                      A                      A
 Frequencies --   3188.5901              3197.2729              3204.8145
 Red. masses --      1.0899                 1.0941                 1.0982
 Frc consts  --      6.5289                 6.5896                 6.6459
 IR Inten    --      9.8351                15.3023                 8.7449

 - Thermochemistry -
 -------------------
 Temperature   298.150 Kelvin.  Pressure   1.00000 Atm.
 Atom     1 has atomic number  6 and mass  12.00000

 Molecular mass:   177.05383 amu.
 Principal axes and moments of inertia in atomic units:
                           1         2         3
     Eigenvalues --  1274.785223216.223113976.36954
           X            0.99992  -0.00068   0.01279
           Y            0.00063   0.99999   0.00362
           Z           -0.01280  -0.00361   0.99991
 This molecule is an asymmetric top.
 Rotational symmetry number  1.
 Warning -- assumption of classical behavior for rotation
           may cause significant error
 Rotational temperatures (Kelvin)      0.06794     0.02693     0.02178
 Rotational constants (GHZ):           1.41572     0.56114     0.45387
 Zero-point vibrational energy     384326.1 (Joules/Mol)
                                   91.85614 (Kcal/Mol)
 Warning -- explicit consideration of  15 degrees of freedom as
           vibrations may cause significant error
 Vibrational temperatures:     24.76    70.19    81.82   153.39   228.04
          (Kelvin)            249.42   333.42   447.88   547.68   597.46
                              670.95   711.99   748.43   799.94   842.82
                              907.58   981.30  1035.71  1093.23  1127.45
                             1194.98  1221.72  1248.29  1307.08  1355.19
                             1387.10  1437.71  1460.85  1480.55  1514.31
                             1602.21  1706.02  1737.60  1746.51  1766.37
                             1907.31  1916.41  1944.64  1967.20  1993.16
                             2109.07  2139.63  2199.96  2340.55  2365.51
                             2452.72  3375.09  4440.92  4538.41  4564.36
                             4573.79  4587.66  4600.16  4611.01

 Zero-point correction=                           0.146382 (Hartree/Particle)
 Thermal correction to Energy=                    0.157488
 Thermal correction to Enthalpy=                  0.158432
 Thermal correction to Gibbs Free Energy=         0.106870
 Sum of electronic and zero-point Energies=           -623.510951
 Sum of electronic and thermal Energies=              -623.499845
 Sum of electronic and thermal Enthalpies=            -623.498901
 Sum of electronic and thermal Free Energies=         -623.550463

                     E (Thermal)             CV                S
                      KCal/Mol        Cal/Mol-Kelvin    Cal/Mol-Kelvin
 Total                   98.825             40.540            108.521
 Electronic               0.000              0.000              0.000
 Translational            0.889              2.981             41.421
 Rotational               0.889              2.981             31.167
 Vibrational             97.048             34.578             35.933
 Vibration     1          0.593              1.986              6.932
 Vibration     2          0.595              1.978              4.866
 Vibration     3          0.596              1.975              4.563
 Vibration     4          0.605              1.944              3.330
 Vibration     5          0.621              1.893              2.568
 Vibration     6          0.627              1.875              2.399
 Vibration     7          0.653              1.792              1.865
 Vibration     8          0.700              1.652              1.355
 Vibration     9          0.750              1.511              1.037
 Vibration    10          0.779              1.437              0.908
 Vibration    11          0.824              1.325              0.748
 Vibration    12          0.850              1.261              0.671
 Vibration    13          0.875              1.205              0.610
 Vibration    14          0.911              1.127              0.532
 Vibration    15          0.943              1.062              0.475

 Optimization completed.
    -- Stationary point found.
 Normal termination of Gaussian 09 at Wed Aug 25 09:20:57 2021.

 -----------------------------------------------------------------
 #P Geom=AllCheck Guess=TCheck SCRF=Check CCSD(T,E4T,FrzG4)/GTBas1
 -----------------------------------------------------------------

 Structure from the checkpoint file:  "/public/home/users/caep010/.cache/gau_scr/Gau-145957.chk"
 ------
 KASBAH
 ------
 Charge =  0 Multiplicity = 1

 SCF Done:  E(RHF) =  -619.913370585     A.U. after   15 cycles
 E2 =    -0.1876108080D+01 EUMP2 =    -0.62178947866445D+03
 CCSD(T)
 CCSD(T)= -0.62190655143D+03
 757\CCSD(T)=-621.9065514\RMSD=5.087e-09\PG=C01 [X(C8H7N3O2)]\\@
 Normal termination of Gaussian 09 at Wed Aug 25 10:44:30 2021.

 ---------------------------------------------------------
 #P Geom=AllCheck Guess=TCheck SCRF=Check MP4=FrzG4/GTBas2
 ---------------------------------------------------------

 Structure from the checkpoint file:  "/public/home/users/caep010/.cache/gau_scr/Gau-145957.chk"
 ------
 KASBAH
 ------
 Charge =  0 Multiplicity = 1

 SCF Done:  E(RHF) =  -619.930005257     A.U. after   14 cycles
 E2 =    -0.1898727285D+01 EUMP2 =    -0.62182873254225D+03
 Normal termination of Gaussian 09 at Wed Aug 25 11:17:46 2021.

 ---------------------------------------------------------
 #P Geom=AllCheck Guess=TCheck SCRF=Check MP4=FrzG4/GTBas3
 ---------------------------------------------------------

 Structure from the checkpoint file:  "/public/home/users/caep010/.cache/gau_scr/Gau-145957.chk"
 ------
 KASBAH
 ------
 Charge =  0 Multiplicity = 1

 SCF Done:  E(RHF) =  -619.974728004     A.U. after   13 cycles
 E2 =    -0.2229502455D+01 EUMP2 =    -0.62220423045899D+03
 Normal termination of Gaussian 09 at Wed Aug 25 15:14:23 2021.

 -----------------------------------------------------------
 #P Geom=AllCheck Guess=TCheck SCRF=Check MP2=Full/GTLargeXP
 -----------------------------------------------------------

 Structure from the checkpoint file:  "/public/home/users/caep010/.cache/gau_scr/Gau-145957.chk"
 ------
 KASBAH
 ------
 Charge =  0 Multiplicity = 1

 SCF Done:  E(RHF) =  -620.121683659     A.U. after   14 cycles
 E2 =    -0.2926575572D+01 EUMP2 =    -0.62304825923130D+03
 Normal termination of Gaussian 09 at Wed Aug 25 15:28:19 2021.
 SCF Done:  E(RHF) =  -620.170755072     A.U. after   10 cycles
 Normal termination of Gaussian 09 at Wed Aug 25 15:35:23 2021.

                         Standard orientation:
 ---------------------------------------------------------------------
 Center     Atomic      Atomic             Coordinates (Angstroms)
 Number     Number       Type             X           Y           Z
 ---------------------------------------------------------------------
      1          6           0       -0.953430    0.009358    0.631478
      2          6           0       -1.534447   -1.208321    0.267372
      3          6           0       -2.763207   -1.230605   -0.386524
      4          6           0       -3.419103   -0.037966   -0.682677
      5          6           0       -2.845386    1.179240   -0.321558
      6          6           0        0.384264    0.043678    1.330987
      7          7           0        1.533030    0.230358    0.410362
      8          7           0        2.105171   -0.900902   -0.239404
      9          6           0       -1.618994    1.202534    0.335513
     10          1           0       -1.176103    2.152326    0.619775
     11          1           0       -3.208514   -2.180146   -0.663139
     12          6           0        1.866853    1.432917   -0.072239
     13          8           0        1.709561   -1.982700    0.146251
     14          1           0       -3.354226    2.110224   -0.546465
     15          7           0        2.109942    2.513396   -0.416779
     16          8           0        2.936534   -0.659160   -1.085256
     17          1           0       -4.377171   -0.056732   -1.191232
     18          1           0       -1.020772   -2.136283    0.494050
     19          1           0        0.584622   -0.879063    1.874033
     20          1           0        0.447099    0.879584    2.031648
 ---------------------------------------------------------------------

 SCF Done:  E(RHF) =  -620.179933490     A.U. after    8 cycles

 The electronic state is 1-A.
 Alpha  occ. eigenvalues --  -20.63769 -20.63683 -15.92649 -15.70907 -15.59551
 Alpha  occ. eigenvalues --  -11.33377 -11.32640 -11.26748 -11.25801 -11.25689
 Alpha  occ. eigenvalues --  -11.25547 -11.25368 -11.25319  -1.66608  -1.45430
 Alpha  occ. eigenvalues --   -1.35339  -1.23049  -1.17925  -1.08346  -1.03717
 Alpha  occ. eigenvalues --   -1.00434  -0.96743  -0.85506  -0.84265  -0.83334
 Alpha  occ. eigenvalues --   -0.78961  -0.77697  -0.73194  -0.70765  -0.67017
 Alpha  occ. eigenvalues --   -0.66924  -0.62569  -0.61044  -0.59795  -0.58761
 Alpha  occ. eigenvalues --   -0.57348  -0.55649  -0.53846  -0.52311  -0.51898
 Alpha  occ. eigenvalues --   -0.51347  -0.49657  -0.48672  -0.43414  -0.35940
 Alpha  occ. eigenvalues --   -0.35806
 Alpha virt. eigenvalues --    0.02491   0.03370   0.03953   0.04710   0.05051
 Alpha virt. eigenvalues --    0.05331   0.05915   0.06541   0.06706   0.07048
 Alpha virt. eigenvalues --    0.07328   0.07848   0.07996   0.08217   0.08604

 Mulliken charges:
               1
     1  C    0.245556
     2  C   -0.276328
     3  C   -0.191337
     4  C   -0.222327
     5  C   -0.195015
     6  C   -0.402536
     7  N   -0.052409
     8  N    0.618767
     9  C   -0.272578
    10  H    0.205343
    11  H    0.212420
    12  C    0.381091
    13  O   -0.398240
    14  H    0.212525
    15  N   -0.411215
    16  O   -0.387038
    17  H    0.207817
    18  H    0.219942
    19  H    0.256823
    20  H    0.248737
 Sum of Mulliken charges =  -0.00000

 Dipole moment (field-independent basis, Debye):
    X=             -3.9575    Y=             -1.1149    Z=              2.6237  Tot=              4.8774
 Quadrupole moment (field-independent basis, Debye-Ang):
   XX=            -78.6380   YY=            -82.5270   ZZ=            -74.7471
   XY=             -3.4623   XZ=              9.0872   YZ=              2.1787

 Normal termination of Gaussian 09 at Wed Aug 25 16:22:32 2021.
