 Gaussian 09, Revision E.01,
 Gaussian 09:  ES64L-G09RevE.01 30-Nov-2015

 ----------------
 #P G4 OPT=calcfc
 ----------------

 ------
 KOVHIM
 ------
 Symbolic Z-matrix:
 Charge =  0 Multiplicity = 1

 SCF Done:  E(RB3LYP) =  -754.193393239     A.U. after   16 cycles
 SCF Done:  E(RB3LYP) =  -754.317106161     A.U. after   16 cycles
 SCF Done:  E(RB3LYP) =  -754.393847303     A.U. after   16 cycles
 SCF Done:  E(RB3LYP) =  -754.403965232     A.U. after   16 cycles
 SCF Done:  E(RB3LYP) =  -754.396194021     A.U. after   15 cycles
 SCF Done:  E(RB3LYP) =  -754.404015133     A.U. after   10 cycles
 SCF Done:  E(RB3LYP) =  -754.401982817     A.U. after   15 cycles
 SCF Done:  E(RB3LYP) =  -754.405695758     A.U. after   12 cycles
 SCF Done:  E(RB3LYP) =  -754.407189974     A.U. after   14 cycles
 SCF Done:  E(RB3LYP) =  -754.408027940     A.U. after   14 cycles
 SCF Done:  E(RB3LYP) =  -754.410200298     A.U. after    8 cycles
 SCF Done:  E(RB3LYP) =  -754.410200387     A.U. after    7 cycles
 SCF Done:  E(RB3LYP) =  -754.410200382     A.U. after    6 cycles
 Optimization completed.
    -- Stationary point found.
 Normal termination of Gaussian 09 at Wed Aug 25 09:42:54 2021.

 ----------------------------------------------------------
 #P Geom=AllCheck Guess=TCheck SCRF=Check B3LYP/GTBas3 Freq
 ----------------------------------------------------------

 Structure from the checkpoint file:  "/public/home/users/caep010/.cache/gau_scr/Gau-58157.chk"
 ------
 KOVHIM
 ------
 Charge =  0 Multiplicity = 1

 SCF Done:  E(RB3LYP) =  -754.410200382     A.U. after    1 cycles

  Exact polarizability: 154.993   0.298 121.102   4.966  -0.784  70.547
 Approx polarizability: 240.099   1.786 213.866  15.123  -2.668 115.710

                      1                      2                      3
                      A                      A                      A
 Frequencies --     46.6164                55.1659                84.2572
 Red. masses --      9.9526                 3.9559                 5.4705
 Frc consts  --      0.0127                 0.0071                 0.0229
 IR Inten    --      0.6860                 0.0833                 0.2291

                      4                      5                      6
                      A                      A                      A
 Frequencies --     94.8950               118.9274               193.6250
 Red. masses --      9.4156                 3.3069                 5.6502
 Frc consts  --      0.0500                 0.0276                 0.1248
 IR Inten    --      0.3874                 1.5988                 1.1383

                      7                      8                      9
                      A                      A                      A
 Frequencies --    223.7602               257.1790               294.7488
 Red. masses --      6.7590                 2.0378                 8.7978
 Frc consts  --      0.1994                 0.0794                 0.4503
 IR Inten    --      2.9452                 0.7723                18.2856

                     10                     11                     12
                      A                      A                      A
 Frequencies --    302.6121               343.2049               363.8607
 Red. masses --      2.2349                 7.6179                 5.6342
 Frc consts  --      0.1206                 0.5287                 0.4395
 IR Inten    --      2.3782                 1.9544                 3.3760

                     13                     14                     15
                      A                      A                      A
 Frequencies --    404.0905               456.2287               472.4642
 Red. masses --      4.4695                12.9692                14.2482
 Frc consts  --      0.4300                 1.5905                 1.8739
 IR Inten    --      0.5986                 1.6267                 0.0343

                     16                     17                     18
                      A                      A                      A
 Frequencies --    491.0924               576.4617               692.4785
 Red. masses --      3.5577                 2.1019                 1.5417
 Frc consts  --      0.5055                 0.4115                 0.4356
 IR Inten    --     12.7347                 0.9144                 7.2309

                     19                     20                     21
                      A                      A                      A
 Frequencies --    702.9374               735.7505               758.8882
 Red. masses --      4.5917                 1.7468                 4.5787
 Frc consts  --      1.3368                 0.5571                 1.5536
 IR Inten    --      1.7472                11.6842                 3.9679

                     22                     23                     24
                      A                      A                      A
 Frequencies --    768.4947               773.2070               799.3447
 Red. masses --      3.0581                 2.1205                 5.7138
 Frc consts  --      1.0641                 0.7469                 2.1510
 IR Inten    --      6.0489               101.7987                34.0845

                     25                     26                     27
                      A                      A                      A
 Frequencies --    804.1296               843.9179               908.1005
 Red. masses --      2.0993                 5.2594                 2.6560
 Frc consts  --      0.7998                 2.2069                 1.2905
 IR Inten    --     14.2221                19.6062                11.3547

                     28                     29                     30
                      A                      A                      A
 Frequencies --    908.6729               952.1784               985.7698
 Red. masses --      2.4479                 2.8948                 2.6836
 Frc consts  --      1.1908                 1.5463                 1.5364
 IR Inten    --      5.1809                 1.3868                10.9021

                     31                     32                     33
                      A                      A                      A
 Frequencies --   1018.4397              1076.5901              1094.9388
 Red. masses --      1.9417                 3.4481                 1.9246
 Frc consts  --      1.1866                 2.3547                 1.3594
 IR Inten    --      1.4405                 9.8828                 2.0465

                     34                     35                     36
                      A                      A                      A
 Frequencies --   1126.3167              1165.0731              1199.7087
 Red. masses --      2.3267                 4.8533                 2.2164
 Frc consts  --      1.7391                 3.8815                 1.8795
 IR Inten    --      7.9103                10.5492                84.9648

                     37                     38                     39
                      A                      A                      A
 Frequencies --   1225.0087              1256.3986              1263.4137
 Red. masses --      1.4409                 1.9914                 7.7196
 Frc consts  --      1.2739                 1.8521                 7.2600
 IR Inten    --     27.0559                26.7513               533.7371

                     40                     41                     42
                      A                      A                      A
 Frequencies --   1291.3948              1305.3424              1316.8534
 Red. masses --      1.5727                 1.3490                 1.4136
 Frc consts  --      1.5453                 1.3543                 1.4442
 IR Inten    --     12.9353                 1.1107                 0.8071

                     43                     44                     45
                      A                      A                      A
 Frequencies --   1361.7620              1384.3283              1394.6256
 Red. masses --      1.3602                 1.3696                 1.6596
 Frc consts  --      1.4861                 1.5464                 1.9018
 IR Inten    --     36.1212                22.0156                30.1082

                     46                     47                     48
                      A                      A                      A
 Frequencies --   1401.1788              1416.7598              1470.2446
 Red. masses --      2.3770                 1.5564                 2.0124
 Frc consts  --      2.7496                 1.8407                 2.5630
 IR Inten    --     48.0875                30.5285                68.1046

                     49                     50                     51
                      A                      A                      A
 Frequencies --   1480.0889              1490.7656              1495.5975
 Red. masses --      1.0829                 1.1652                 1.1031
 Frc consts  --      1.3977                 1.5257                 1.4537
 IR Inten    --      2.5764                 2.8144                11.5447

                     52                     53                     54
                      A                      A                      A
 Frequencies --   1518.5042              1579.9046              1616.2155
 Red. masses --      1.0824                 2.5396                10.2268
 Frc consts  --      1.4705                 3.7349                15.7394
 IR Inten    --     12.3188                41.4144               888.2796

                     55                     56                     57
                      A                      A                      A
 Frequencies --   1622.0372              1683.6322              3019.9502
 Red. masses --      5.7538                 1.9109                 1.0707
 Frc consts  --      8.9192                 3.1915                 5.7535
 IR Inten    --    262.8743               275.6354                12.6333

                     58                     59                     60
                      A                      A                      A
 Frequencies --   3036.6316              3041.4687              3052.0822
 Red. masses --      1.0672                 1.0626                 1.0625
 Frc consts  --      5.7982                 5.7913                 5.8313
 IR Inten    --     34.3593                44.4181                14.9847

                     61                     62                     63
                      A                      A                      A
 Frequencies --   3080.2653              3090.5729              3097.6003
 Red. masses --      1.1003                 1.0937                 1.1019
 Frc consts  --      6.1506                 6.1551                 6.2292
 IR Inten    --     10.8874                23.7503                38.0507

                     64                     65                     66
                      A                      A                      A
 Frequencies --   3107.3898              3333.4534              3376.5433
 Red. masses --      1.0990                 1.0786                 1.0812
 Frc consts  --      6.2521                 7.0619                 7.2625
 IR Inten    --     18.8930               277.4306               363.2382

 - Thermochemistry -
 -------------------
 Temperature   298.150 Kelvin.  Pressure   1.00000 Atm.
 Atom     1 has atomic number  6 and mass  12.00000

 Molecular mass:   202.07020 amu.
 Principal axes and moments of inertia in atomic units:
                           1         2         3
     Eigenvalues --  1486.921453577.142914757.34980
           X            1.00000  -0.00004  -0.00282
           Y            0.00001   0.99994  -0.01108
           Z            0.00282   0.01108   0.99993
 This molecule is an asymmetric top.
 Rotational symmetry number  1.
 Warning -- assumption of classical behavior for rotation
           may cause significant error
 Rotational temperatures (Kelvin)      0.05825     0.02421     0.01821
 Rotational constants (GHZ):           1.21374     0.50452     0.37936
 Zero-point vibrational energy     489895.6 (Joules/Mol)
                                  117.08785 (Kcal/Mol)
 Warning -- explicit consideration of  17 degrees of freedom as
           vibrations may cause significant error
 Vibrational temperatures:     67.07    79.37   121.23   136.53   171.11
          (Kelvin)            278.58   321.94   370.02   424.08   435.39
                              493.79   523.51   581.40   656.41   679.77
                              706.57   829.40   996.32  1011.37  1058.58
                             1091.87  1105.69  1112.47  1150.08  1156.96
                             1214.21  1306.55  1307.38  1369.97  1418.30
                             1465.31  1548.97  1575.37  1620.52  1676.28
                             1726.11  1762.51  1807.68  1817.77  1858.03
                             1878.09  1894.66  1959.27  1991.74  2006.55
                             2015.98  2038.40  2115.35  2129.52  2144.88
                             2151.83  2184.79  2273.13  2325.37  2333.75
                             2422.37  4345.03  4369.03  4375.99  4391.26
                             4431.81  4446.64  4456.75  4470.84  4796.09
                             4858.09

 Zero-point correction=                           0.186591 (Hartree/Particle)
 Thermal correction to Energy=                    0.198941
 Thermal correction to Enthalpy=                  0.199885
 Thermal correction to Gibbs Free Energy=         0.146939
 Sum of electronic and zero-point Energies=           -754.223609
 Sum of electronic and thermal Energies=              -754.211260
 Sum of electronic and thermal Enthalpies=            -754.210316
 Sum of electronic and thermal Free Energies=         -754.263261

                     E (Thermal)             CV                S
                      KCal/Mol        Cal/Mol-Kelvin    Cal/Mol-Kelvin
 Total                  124.837             46.083            111.434
 Electronic               0.000              0.000              0.000
 Translational            0.889              2.981             41.815
 Rotational               0.889              2.981             31.604
 Vibrational            123.060             40.121             38.015
 Vibration     1          0.595              1.979              4.956
 Vibration     2          0.596              1.976              4.623
 Vibration     3          0.601              1.960              3.789
 Vibration     4          0.603              1.953              3.557
 Vibration     5          0.609              1.934              3.118
 Vibration     6          0.635              1.849              2.193
 Vibration     7          0.649              1.805              1.928
 Vibration     8          0.667              1.751              1.681
 Vibration     9          0.689              1.684              1.447
 Vibration    10          0.694              1.669              1.402
 Vibration    11          0.722              1.589              1.197
 Vibration    12          0.737              1.547              1.106
 Vibration    13          0.769              1.461              0.948
 Vibration    14          0.814              1.347              0.777
 Vibration    15          0.829              1.311              0.731
 Vibration    16          0.847              1.270              0.681
 Vibration    17          0.933              1.082              0.492

 Optimization completed.
    -- Stationary point found.
 Normal termination of Gaussian 09 at Wed Aug 25 09:47:13 2021.

 -----------------------------------------------------------------
 #P Geom=AllCheck Guess=TCheck SCRF=Check CCSD(T,E4T,FrzG4)/GTBas1
 -----------------------------------------------------------------

 Structure from the checkpoint file:  "/public/home/users/caep010/.cache/gau_scr/Gau-58157.chk"
 ------
 KOVHIM
 ------
 Charge =  0 Multiplicity = 1

 SCF Done:  E(RHF) =  -749.989820496     A.U. after   14 cycles
 E2 =    -0.2188108478D+01 EUMP2 =    -0.75217792897385D+03
 CCSD(T)
 CCSD(T)= -0.75230565469D+03
 DQ=-752.2223271\CCSD=-752.2147951\CCSD(T)=-752.3056547\RMSD=9.845e-09\
 Normal termination of Gaussian 09 at Wed Aug 25 12:42:37 2021.

 ---------------------------------------------------------
 #P Geom=AllCheck Guess=TCheck SCRF=Check MP4=FrzG4/GTBas2
 ---------------------------------------------------------

 Structure from the checkpoint file:  "/public/home/users/caep010/.cache/gau_scr/Gau-58157.chk"
 ------
 KOVHIM
 ------
 Charge =  0 Multiplicity = 1

 SCF Done:  E(RHF) =  -750.009687668     A.U. after   17 cycles
 E2 =    -0.2219943333D+01 EUMP2 =    -0.75222963100052D+03
 Normal termination of Gaussian 09 at Wed Aug 25 14:06:41 2021.

 ---------------------------------------------------------
 #P Geom=AllCheck Guess=TCheck SCRF=Check MP4=FrzG4/GTBas3
 ---------------------------------------------------------

 Structure from the checkpoint file:  "/public/home/users/caep010/.cache/gau_scr/Gau-58157.chk"
 ------
 KOVHIM
 ------
 Charge =  0 Multiplicity = 1

 SCF Done:  E(RHF) =  -750.072354950     A.U. after   12 cycles
 E2 =    -0.2636424608D+01 EUMP2 =    -0.75270877955826D+03
 Normal termination of Gaussian 09 at Thu Aug 26 01:28:41 2021.

 -----------------------------------------------------------
 #P Geom=AllCheck Guess=TCheck SCRF=Check MP2=Full/GTLargeXP
 -----------------------------------------------------------

 Structure from the checkpoint file:  "/public/home/users/caep010/.cache/gau_scr/Gau-58157.chk"
 ------
 KOVHIM
 ------
 Charge =  0 Multiplicity = 1

 SCF Done:  E(RHF) =  -750.260433547     A.U. after   16 cycles
 E2 =    -0.3426041276D+01 EUMP2 =    -0.75368647482310D+03
 Normal termination of Gaussian 09 at Thu Aug 26 01:49:21 2021.
 SCF Done:  E(RHF) =  -750.320719069     A.U. after   11 cycles
 Normal termination of Gaussian 09 at Thu Aug 26 01:59:41 2021.

                         Standard orientation:
 ---------------------------------------------------------------------
 Center     Atomic      Atomic             Coordinates (Angstroms)
 Number     Number       Type             X           Y           Z
 ---------------------------------------------------------------------
      1          6           0       -1.179291   -0.015369    0.035255
      2          7           0       -1.996197    1.153658    0.113647
      3          8           0       -1.450515    2.274697   -0.039083
      4          8           0       -3.182107    1.051794    0.372482
      5          7           0       -1.867866   -1.245694   -0.208883
      6          8           0       -2.954237   -1.233208   -0.759191
      7          8           0       -1.303974   -2.319206    0.112872
      8          6           0        0.258120    0.036308    0.186177
      9          7           0        0.870824    1.226190    0.242309
     10          6           0        2.295679    1.537453    0.069428
     11          6           0        3.032429    0.592808   -0.884963
     12          6           0        3.380133   -0.766499   -0.248630
     13          6           0        2.322638   -1.214524    0.763329
     14          1           0        2.414453   -0.637208    1.691274
     15          1           0        2.409415    0.448012   -1.773507
     16          1           0        4.340842   -0.708283    0.275860
     17          1           0        3.493269   -1.521295   -1.033190
     18          1           0        2.475401   -2.261754    1.033728
     19          7           0        0.953883   -1.108327    0.264956
     20          1           0        0.342259   -1.925131    0.295498
     21          1           0        0.200272    1.989757    0.125592
     22          1           0        2.318350    2.552637   -0.335270
     23          1           0        2.802054    1.582007    1.041754
     24          1           0        3.947596    1.086787   -1.226141
 ---------------------------------------------------------------------

 SCF Done:  E(RHF) =  -750.332720573     A.U. after    9 cycles

 The electronic state is 1-A.
 Alpha  occ. eigenvalues --  -20.59894 -20.59779 -20.58617 -20.58553 -15.85927
 Alpha  occ. eigenvalues --  -15.85901 -15.61594 -15.61405 -11.40857 -11.33113
 Alpha  occ. eigenvalues --  -11.30573 -11.30307 -11.26110 -11.25922  -1.60905
 Alpha  occ. eigenvalues --   -1.58911  -1.39409  -1.38329  -1.34662  -1.24489
 Alpha  occ. eigenvalues --   -1.16641  -1.11147  -1.01464  -0.98690  -0.97653
 Alpha  occ. eigenvalues --   -0.85900  -0.84882  -0.83676  -0.78502  -0.78255
 Alpha  occ. eigenvalues --   -0.73947  -0.72301  -0.71931  -0.69984  -0.69766
 Alpha  occ. eigenvalues --   -0.69427  -0.67468  -0.66099  -0.64106  -0.60538
 Alpha  occ. eigenvalues --   -0.58676  -0.55061  -0.54433  -0.52277  -0.51716
 Alpha  occ. eigenvalues --   -0.51049  -0.49787  -0.48954  -0.47340  -0.45784
 Alpha  occ. eigenvalues --   -0.45071  -0.41391  -0.36959
 Alpha virt. eigenvalues --    0.01797   0.02767   0.02850   0.03988   0.04897
 Alpha virt. eigenvalues --    0.05277   0.05585   0.05790   0.06054   0.06558
 Alpha virt. eigenvalues --    0.07731   0.08227   0.08442   0.08644   0.08820

 Mulliken charges:
               1
     1  C    0.075948
     2  N    0.487506
     3  O   -0.501898
     4  O   -0.381738
     5  N    0.488223
     6  O   -0.377712
     7  O   -0.496424
     8  C    0.455198
     9  N   -0.421903
    10  C   -0.289796
    11  C   -0.311889
    12  C   -0.294417
    13  C   -0.293253
    14  H    0.182558
    15  H    0.183060
    16  H    0.172757
    17  H    0.182755
    18  H    0.214395
    19  N   -0.464099
    20  H    0.402009
    21  H    0.407311
    22  H    0.202248
    23  H    0.188113
    24  H    0.191050
 Sum of Mulliken charges =  -0.00000

 Dipole moment (field-independent basis, Debye):
    X=              9.9283    Y=              0.3634    Z=              0.7450  Tot=              9.9628
 Quadrupole moment (field-independent basis, Debye-Ang):
   XX=            -88.9481   YY=            -89.2291   ZZ=            -80.6996
   XY=              0.6250   XZ=             -0.2677   YZ=             -2.3411

 Normal termination of Gaussian 09 at Thu Aug 26 03:08:15 2021.
