 Gaussian 09, Revision E.01,
 Gaussian 09:  ES64L-G09RevE.01 30-Nov-2015

 ----------------
 #P G4 OPT=calcfc
 ----------------

 ------
 KIKNEY
 ------
 Symbolic Z-matrix:
 Charge =  0 Multiplicity = 1

 SCF Done:  E(RB3LYP) =  -619.770164989     A.U. after   16 cycles
 SCF Done:  E(RB3LYP) =  -619.929360915     A.U. after   14 cycles
 SCF Done:  E(RB3LYP) =  -620.052441421     A.U. after   15 cycles
 SCF Done:  E(RB3LYP) =  -620.039073313     A.U. after   15 cycles
 SCF Done:  E(RB3LYP) =  -620.053091956     A.U. after   12 cycles
 SCF Done:  E(RB3LYP) =  -620.057056022     A.U. after   13 cycles
 SCF Done:  E(RB3LYP) =  -620.054377047     A.U. after   13 cycles
 SCF Done:  E(RB3LYP) =  -620.057650850     A.U. after   10 cycles
 SCF Done:  E(RB3LYP) =  -620.059329814     A.U. after   12 cycles
 SCF Done:  E(RB3LYP) =  -620.059561241     A.U. after   12 cycles
 SCF Done:  E(RB3LYP) =  -620.059673708     A.U. after   10 cycles
 SCF Done:  E(RB3LYP) =  -620.059675576     A.U. after    8 cycles
 SCF Done:  E(RB3LYP) =  -620.059676121     A.U. after    8 cycles
 Optimization completed.
    -- Stationary point found.
 Normal termination of Gaussian 09 at Wed Aug 25 09:02:06 2021.

 ----------------------------------------------------------
 #P Geom=AllCheck Guess=TCheck SCRF=Check B3LYP/GTBas3 Freq
 ----------------------------------------------------------

 Structure from the checkpoint file:  "/public/home/users/caep010/.cache/gau_scr/Gau-169760.chk"
 ------
 KIKNEY
 ------
 Charge =  0 Multiplicity = 1

 SCF Done:  E(RB3LYP) =  -620.059676121     A.U. after    1 cycles

  Exact polarizability: 135.195   2.403 111.094   0.945   0.578  56.108
 Approx polarizability: 213.194   0.481 184.244   4.859   4.809  90.030

                      1                      2                      3
                      A                      A                      A
 Frequencies --     64.9729                91.1260               107.6577
 Red. masses --      4.1190                 5.0795                 1.1710
 Frc consts  --      0.0102                 0.0249                 0.0080
 IR Inten    --      3.9687                 0.5355                 0.0859

                      4                      5                      6
                      A                      A                      A
 Frequencies --    128.2197               152.3153               175.7774
 Red. masses --      3.3609                 1.1186                 2.6768
 Frc consts  --      0.0326                 0.0153                 0.0487
 IR Inten    --      5.1253                 1.3499                13.3973

                      7                      8                      9
                      A                      A                      A
 Frequencies --    206.6978               223.5358               261.9664
 Red. masses --      6.2420                 4.0549                 4.1515
 Frc consts  --      0.1571                 0.1194                 0.1679
 IR Inten    --      4.4939                 1.3171                 0.4030

                     10                     11                     12
                      A                      A                      A
 Frequencies --    283.1530               291.2740               365.2984
 Red. masses --      2.1553                 1.7033                 2.6298
 Frc consts  --      0.1018                 0.0851                 0.2068
 IR Inten    --     10.4971                27.6291                12.7119

                     13                     14                     15
                      A                      A                      A
 Frequencies --    400.1530               421.3401               432.6987
 Red. masses --      5.1829                 8.4188                 7.7556
 Frc consts  --      0.4890                 0.8806                 0.8555
 IR Inten    --      1.0661                 0.0979                 4.7968

                     16                     17                     18
                      A                      A                      A
 Frequencies --    593.8528               634.8719               660.6869
 Red. masses --      4.3573                 4.4338                 6.0744
 Frc consts  --      0.9054                 1.0529                 1.5622
 IR Inten    --     12.6081                15.4061                 1.4923

                     19                     20                     21
                      A                      A                      A
 Frequencies --    693.5717               726.6968               795.9135
 Red. masses --      3.5705                 4.6725                 2.2518
 Frc consts  --      1.0119                 1.4538                 0.8405
 IR Inten    --     16.0940                29.2422                40.0188

                     22                     23                     24
                      A                      A                      A
 Frequencies --    796.8644               833.0854               912.5413
 Red. masses --      6.6726                 4.8738                 4.7838
 Frc consts  --      2.4964                 1.9930                 2.3471
 IR Inten    --     31.4490                10.1343                 6.3130

                     25                     26                     27
                      A                      A                      A
 Frequencies --    993.9152              1018.2177              1044.6302
 Red. masses --      2.0490                 1.7893                 1.9579
 Frc consts  --      1.1926                 1.0930                 1.2588
 IR Inten    --    100.4322                22.7772                 2.5097

                     28                     29                     30
                      A                      A                      A
 Frequencies --   1066.0376              1130.0075              1153.6180
 Red. masses --      1.5202                 2.9619                 1.2989
 Frc consts  --      1.0179                 2.2283                 1.0184
 IR Inten    --      2.1777                14.8275                 1.3836

                     31                     32                     33
                      A                      A                      A
 Frequencies --   1173.8219              1255.5401              1292.5425
 Red. masses --      4.5517                 2.4488                 4.9217
 Frc consts  --      3.6951                 2.2744                 4.8446
 IR Inten    --      8.5791                45.0250                69.1046

                     34                     35                     36
                      A                      A                      A
 Frequencies --   1325.0855              1397.2854              1409.1795
 Red. masses --      1.2416                 2.7769                 1.7288
 Frc consts  --      1.2845                 3.1944                 2.0226
 IR Inten    --     63.1028               105.8941                22.2147

                     37                     38                     39
                      A                      A                      A
 Frequencies --   1416.3336              1434.8536              1455.2078
 Red. masses --      2.7913                 1.5670                 1.4623
 Frc consts  --      3.2991                 1.9007                 1.8245
 IR Inten    --     82.0080                25.6958                77.0951

                     40                     41                     42
                      A                      A                      A
 Frequencies --   1472.6577              1480.2232              1483.3915
 Red. masses --      1.0441                 1.1547                 1.7383
 Frc consts  --      1.3341                 1.4906                 2.2536
 IR Inten    --      5.3828                 8.8125                34.5470

                     43                     44                     45
                      A                      A                      A
 Frequencies --   1500.2434              1537.7863              1577.1258
 Red. masses --      1.0868                 4.0275                 6.4778
 Frc consts  --      1.4411                 5.6115                 9.4932
 IR Inten    --      2.5255               157.5534                85.3144

                     46                     47                     48
                      A                      A                      A
 Frequencies --   1601.6801              1617.9969              1699.1239
 Red. masses --      2.4204                 4.3534                 1.2849
 Frc consts  --      3.6584                 6.7149                 2.1856
 IR Inten    --     70.0259               269.6295                66.7566

                     49                     50                     51
                      A                      A                      A
 Frequencies --   3051.9523              3063.6452              3111.2963
 Red. masses --      1.0353                 1.0331                 1.0992
 Frc consts  --      5.6815                 5.7130                 6.2689
 IR Inten    --     11.8115                31.9623                 6.6315

                     52                     53                     54
                      A                      A                      A
 Frequencies --   3133.1379              3142.9581              3169.3417
 Red. masses --      1.1036                 1.1031                 1.1037
 Frc consts  --      6.3829                 6.4201                 6.5321
 IR Inten    --     10.8758                 9.7809                 3.1186

                     55                     56                     57
                      A                      A                      A
 Frequencies --   3450.2797              3476.8249              3559.3005
 Red. masses --      1.0524                 1.0755                 1.0910
 Frc consts  --      7.3817                 7.6599                 8.1432
 IR Inten    --      2.0066                63.8437                 7.2949

 - Thermochemistry -
 -------------------
 Temperature   298.150 Kelvin.  Pressure   1.00000 Atm.
 Atom     1 has atomic number  8 and mass  15.99491

 Molecular mass:   171.07562 amu.
 Principal axes and moments of inertia in atomic units:
                           1         2         3
     Eigenvalues --  1377.536612041.176613351.93952
           X            0.99680   0.07999  -0.00035
           Y           -0.07999   0.99679  -0.00427
           Z            0.00001   0.00428   0.99999
 This molecule is an asymmetric top.
 Rotational symmetry number  1.
 Warning -- assumption of classical behavior for rotation
           may cause significant error
 Rotational temperatures (Kelvin)      0.06288     0.04243     0.02584
 Rotational constants (GHZ):           1.31012     0.88417     0.53842
 Zero-point vibrational energy     430353.7 (Joules/Mol)
                                  102.85699 (Kcal/Mol)
 Warning -- explicit consideration of  16 degrees of freedom as
           vibrations may cause significant error
 Vibrational temperatures:     93.48   131.11   154.90   184.48   219.15
          (Kelvin)            252.90   297.39   321.62   376.91   407.39
                              419.08   525.58   575.73   606.21   622.56
                              854.42   913.44   950.58   997.89  1045.55
                             1145.14  1146.51  1198.62  1312.94  1430.02
                             1464.99  1502.99  1533.79  1625.83  1659.80
                             1688.87  1806.44  1859.68  1906.50  2010.38
                             2027.49  2037.79  2064.43  2093.72  2118.82
                             2129.71  2134.27  2158.51  2212.53  2269.13
                             2304.46  2327.93  2444.66  4391.07  4407.90
                             4476.46  4507.88  4522.01  4559.97  4964.18
                             5002.37  5121.03

 Zero-point correction=                           0.163913 (Hartree/Particle)
 Thermal correction to Energy=                    0.175813
 Thermal correction to Enthalpy=                  0.176757
 Thermal correction to Gibbs Free Energy=         0.125973
 Sum of electronic and zero-point Energies=           -619.895763
 Sum of electronic and thermal Energies=              -619.883863
 Sum of electronic and thermal Enthalpies=            -619.882919
 Sum of electronic and thermal Free Energies=         -619.933703

                     E (Thermal)             CV                S
                      KCal/Mol        Cal/Mol-Kelvin    Cal/Mol-Kelvin
 Total                  110.324             42.689            106.883
 Electronic               0.000              0.000              0.000
 Translational            0.889              2.981             41.319
 Rotational               0.889              2.981             30.623
 Vibrational            108.547             36.728             34.942
 Vibration     1          0.597              1.971              4.300
 Vibration     2          0.602              1.955              3.636
 Vibration     3          0.606              1.943              3.311
 Vibration     4          0.611              1.925              2.973
 Vibration     5          0.619              1.900              2.643
 Vibration     6          0.628              1.872              2.373
 Vibration     7          0.641              1.830              2.073
 Vibration     8          0.649              1.805              1.930
 Vibration     9          0.669              1.742              1.649
 Vibration    10          0.682              1.705              1.515
 Vibration    11          0.687              1.690              1.467
 Vibration    12          0.739              1.544              1.099
 Vibration    13          0.766              1.470              0.962
 Vibration    14          0.784              1.424              0.887
 Vibration    15          0.794              1.399              0.850
 Vibration    16          0.951              1.045              0.460

 Normal termination of Gaussian 09 at Wed Aug 25 09:04:47 2021.

 -----------------------------------------------------------------
 #P Geom=AllCheck Guess=TCheck SCRF=Check CCSD(T,E4T,FrzG4)/GTBas1
 -----------------------------------------------------------------

 Structure from the checkpoint file:  "/public/home/users/caep010/.cache/gau_scr/Gau-169760.chk"
 ------
 KIKNEY
 ------
 Charge =  0 Multiplicity = 1

 SCF Done:  E(RHF) =  -616.360250808     A.U. after   15 cycles
 E2 =    -0.1837679873D+01 EUMP2 =    -0.61819793068089D+03
 CCSD(T)
 CCSD(T)= -0.61831349288D+03
 SDTQ=-618.3283035\MP4SDQ=-618.241529\CCSD=-618.2377058\CCSD(T)=-618.31
 Normal termination of Gaussian 09 at Wed Aug 25 10:12:51 2021.

 ---------------------------------------------------------
 #P Geom=AllCheck Guess=TCheck SCRF=Check MP4=FrzG4/GTBas2
 ---------------------------------------------------------

 Structure from the checkpoint file:  "/public/home/users/caep010/.cache/gau_scr/Gau-169760.chk"
 ------
 KIKNEY
 ------
 Charge =  0 Multiplicity = 1

 SCF Done:  E(RHF) =  -616.377504768     A.U. after   14 cycles
 E2 =    -0.1863922973D+01 EUMP2 =    -0.61824142774102D+03
 Normal termination of Gaussian 09 at Wed Aug 25 10:40:52 2021.

 ---------------------------------------------------------
 #P Geom=AllCheck Guess=TCheck SCRF=Check MP4=FrzG4/GTBas3
 ---------------------------------------------------------

 Structure from the checkpoint file:  "/public/home/users/caep010/.cache/gau_scr/Gau-169760.chk"
 ------
 KIKNEY
 ------
 Charge =  0 Multiplicity = 1

 SCF Done:  E(RHF) =  -616.429288559     A.U. after   12 cycles
 E2 =    -0.2203463461D+01 EUMP2 =    -0.61863275202073D+03
 Normal termination of Gaussian 09 at Wed Aug 25 14:48:10 2021.

 -----------------------------------------------------------
 #P Geom=AllCheck Guess=TCheck SCRF=Check MP2=Full/GTLargeXP
 -----------------------------------------------------------

 Structure from the checkpoint file:  "/public/home/users/caep010/.cache/gau_scr/Gau-169760.chk"
 ------
 KIKNEY
 ------
 Charge =  0 Multiplicity = 1

 SCF Done:  E(RHF) =  -616.581909666     A.U. after   14 cycles
 E2 =    -0.2871586612D+01 EUMP2 =    -0.61945349627873D+03
 Normal termination of Gaussian 09 at Wed Aug 25 15:10:55 2021.
 SCF Done:  E(RHF) =  -616.629916902     A.U. after   10 cycles
 Normal termination of Gaussian 09 at Wed Aug 25 15:17:23 2021.

                         Standard orientation:
 ---------------------------------------------------------------------
 Center     Atomic      Atomic             Coordinates (Angstroms)
 Number     Number       Type             X           Y           Z
 ---------------------------------------------------------------------
      1          8           0        1.073721   -2.352429   -0.147701
      2          7           0        1.559755   -1.209108   -0.038240
      3          8           0        2.765202   -1.000105    0.081641
      4          6           0        0.680556   -0.112459   -0.048510
      5          6           0       -0.722821   -0.197080   -0.104073
      6          7           0       -1.491639   -1.318704   -0.256440
      7          7           0       -2.749505   -1.346324    0.397741
      8          1           0       -0.907743   -2.151182   -0.203012
      9          7           0       -1.160974    1.073503   -0.056129
     10          6           0       -2.514876    1.586927   -0.152999
     11          1           0       -3.030579    1.136356   -1.004168
     12          6           0        0.990638    1.275021    0.039118
     13          6           0        2.323359    1.938857    0.124748
     14          1           0        2.944600    1.683727   -0.738544
     15          1           0       -2.664007   -1.826187    1.292400
     16          7           0       -0.122297    1.979114    0.036785
     17          1           0       -3.385647   -1.883638   -0.181764
     18          1           0        2.184813    3.020867    0.167163
     19          1           0        2.871259    1.604860    1.010106
     20          1           0       -2.424339    2.662500   -0.300493
     21          1           0       -3.088252    1.376001    0.751089
 ---------------------------------------------------------------------

 SCF Done:  E(RHF) =  -616.639537080     A.U. after    8 cycles

 The electronic state is 1-A.
 Alpha  occ. eigenvalues --  -20.58737 -20.58153 -15.84652 -15.65036 -15.62716
 Alpha  occ. eigenvalues --  -15.61641 -15.59068 -11.35678 -11.29092 -11.27601
 Alpha  occ. eigenvalues --  -11.27457 -11.22821  -1.58665  -1.39829  -1.37831
 Alpha  occ. eigenvalues --   -1.32606  -1.16031  -1.14494  -1.07260  -1.00590
 Alpha  occ. eigenvalues --   -0.98143  -0.89696  -0.82104  -0.78680  -0.75943
 Alpha  occ. eigenvalues --   -0.72491  -0.71497  -0.71049  -0.70600  -0.69203
 Alpha  occ. eigenvalues --   -0.66047  -0.62499  -0.58969  -0.58525  -0.55924
 Alpha  occ. eigenvalues --   -0.55083  -0.54418  -0.50798  -0.48600  -0.48185
 Alpha  occ. eigenvalues --   -0.46582  -0.45832  -0.45024  -0.37569  -0.34000
 Alpha virt. eigenvalues --    0.02642   0.03711   0.04205   0.04465   0.05710
 Alpha virt. eigenvalues --    0.06247   0.06526   0.06763   0.07194   0.07526
 Alpha virt. eigenvalues --    0.08227   0.08589   0.09198   0.09366   0.09980

 Mulliken charges:
               1
     1  O   -0.509058
     2  N    0.492177
     3  O   -0.450173
     4  C    0.101486
     5  C    0.331685
     6  N   -0.409765
     7  N   -0.640156
     8  H    0.369751
     9  N    0.151682
    10  C   -0.555457
    11  H    0.190170
    12  C    0.363786
    13  C   -0.652795
    14  H    0.202043
    15  H    0.312606
    16  N   -0.472161
    17  H    0.332434
    18  H    0.201504
    19  H    0.203609
    20  H    0.232945
    21  H    0.203685
 Sum of Mulliken charges =  -0.00000

 Dipole moment (field-independent basis, Debye):
    X=             -5.2763    Y=              0.2403    Z=              0.5515  Tot=              5.3105
 Quadrupole moment (field-independent basis, Debye-Ang):
   XX=            -65.9992   YY=            -74.1403   ZZ=            -69.1731
   XY=             12.4047   XZ=             -0.7096   YZ=             -2.4887

 Normal termination of Gaussian 09 at Wed Aug 25 16:00:21 2021.
