 Gaussian 09, Revision E.01,
 Gaussian 09:  ES64L-G09RevE.01 30-Nov-2015

 ----------------
 #P G4 OPT=calcfc
 ----------------

 ------
 KOFKAR
 ------
 Symbolic Z-matrix:
 Charge =  0 Multiplicity = 1

 SCF Done:  E(RB3LYP) =  -676.813000089     A.U. after   15 cycles
 SCF Done:  E(RB3LYP) =  -676.905253531     A.U. after   14 cycles
 SCF Done:  E(RB3LYP) =  -676.951635093     A.U. after   16 cycles
 SCF Done:  E(RB3LYP) =  -676.955879386     A.U. after   15 cycles
 SCF Done:  E(RB3LYP) =  -676.946052074     A.U. after   15 cycles
 SCF Done:  E(RB3LYP) =  -676.956145379     A.U. after   11 cycles
 SCF Done:  E(RB3LYP) =  -676.957709163     A.U. after   13 cycles
 SCF Done:  E(RB3LYP) =  -676.958556817     A.U. after   13 cycles
 SCF Done:  E(RB3LYP) =  -676.958749000     A.U. after   10 cycles
 SCF Done:  E(RB3LYP) =  -676.959076916     A.U. after   12 cycles
 SCF Done:  E(RB3LYP) =  -676.959275721     A.U. after   12 cycles
 SCF Done:  E(RB3LYP) =  -676.959332207     A.U. after   12 cycles
 SCF Done:  E(RB3LYP) =  -676.959334003     A.U. after    9 cycles
 Optimization completed.
    -- Stationary point found.
 Normal termination of Gaussian 09 at Thu Aug 26 13:17:29 2021.

 ----------------------------------------------------------
 #P Geom=AllCheck Guess=TCheck SCRF=Check B3LYP/GTBas3 Freq
 ----------------------------------------------------------

 Structure from the checkpoint file:  "/public/home/users/caep010/.cache/gau_scr/Gau-99649.chk"
 ------
 KOFKAR
 ------
 Charge =  0 Multiplicity = 1

 SCF Done:  E(RB3LYP) =  -676.959334003     A.U. after    1 cycles

  Exact polarizability:  99.930  -4.299  93.494   1.518  -0.504  67.252
 Approx polarizability: 149.567 -10.995 161.970   4.345  -6.338 114.251

                      1                      2                      3
                      A                      A                      A
 Frequencies --     54.8746                72.2056                87.2920
 Red. masses --      9.7219                 7.9975                10.5665
 Frc consts  --      0.0172                 0.0246                 0.0474
 IR Inten    --      2.5133                 0.7147                 0.7903

                      4                      5                      6
                      A                      A                      A
 Frequencies --    105.4942               188.8033               251.6485
 Red. masses --      5.3268                 3.8392                 3.3274
 Frc consts  --      0.0349                 0.0806                 0.1242
 IR Inten    --      0.7781                 1.6044                 5.0710

                      7                      8                      9
                      A                      A                      A
 Frequencies --    283.9646               346.5669               399.8344
 Red. masses --      3.2213                 4.4726                 3.6168
 Frc consts  --      0.1530                 0.3165                 0.3407
 IR Inten    --      1.5365                 0.9220                 6.0524

                     10                     11                     12
                      A                      A                      A
 Frequencies --    417.6126               442.9808               512.2989
 Red. masses --      3.3547                 2.3747                 3.1276
 Frc consts  --      0.3447                 0.2745                 0.4836
 IR Inten    --      0.2323                15.9329                 1.5747

                     13                     14                     15
                      A                      A                      A
 Frequencies --    579.8046               607.3376               639.3623
 Red. masses --      6.7209                 4.0667                 5.7553
 Frc consts  --      1.3312                 0.8838                 1.3861
 IR Inten    --      7.1105                 4.8616                 6.8021

                     16                     17                     18
                      A                      A                      A
 Frequencies --    718.6271               780.8797               788.1860
 Red. masses --      3.3791                10.7588                11.3633
 Frc consts  --      1.0282                 3.8653                 4.1592
 IR Inten    --      4.3343                 5.4368                19.4089

                     19                     20                     21
                      A                      A                      A
 Frequencies --    830.8846               857.7842               883.6552
 Red. masses --      6.0055                 4.3516                 1.4801
 Frc consts  --      2.4428                 1.8865                 0.6809
 IR Inten    --      4.6575                21.9925                32.7501

                     22                     23                     24
                      A                      A                      A
 Frequencies --    900.6582               947.4738               975.1592
 Red. masses --      3.1093                 2.7658                 3.0588
 Frc consts  --      1.4860                 1.4628                 1.7138
 IR Inten    --     12.9591                45.3299                81.6138

                     25                     26                     27
                      A                      A                      A
 Frequencies --   1002.6903              1054.4113              1075.1311
 Red. masses --      2.9544                 1.7636                 2.1496
 Frc consts  --      1.7501                 1.1552                 1.4640
 IR Inten    --    171.7872                65.2553                20.2122

                     28                     29                     30
                      A                      A                      A
 Frequencies --   1158.5367              1190.1516              1221.4161
 Red. masses --      2.2772                 2.3457                 1.4153
 Frc consts  --      1.8008                 1.9576                 1.2440
 IR Inten    --      3.0273                12.6368                20.7635

                     31                     32                     33
                      A                      A                      A
 Frequencies --   1268.9403              1284.2237              1308.3639
 Red. masses --      3.6942                 1.9578                 2.5074
 Frc consts  --      3.5048                 1.9024                 2.5289
 IR Inten    --      8.9686                53.7556               291.5675

                     34                     35                     36
                      A                      A                      A
 Frequencies --   1331.2559              1342.8052              1351.4305
 Red. masses --      1.8522                 1.5126                 2.2499
 Frc consts  --      1.9341                 1.6070                 2.4211
 IR Inten    --     84.2482                31.4884               107.0433

                     37                     38                     39
                      A                      A                      A
 Frequencies --   1363.4327              1382.3042              1402.3196
 Red. masses --      1.3028                 1.3378                 1.6538
 Frc consts  --      1.4269                 1.5061                 1.9161
 IR Inten    --      4.0868                 2.5134                26.1893

                     40                     41                     42
                      A                      A                      A
 Frequencies --   1425.5926              1476.5846              1481.1883
 Red. masses --      1.7525                 1.1067                 1.0955
 Frc consts  --      2.0984                 1.4217                 1.4160
 IR Inten    --     84.0843                13.2698                15.5597

                     43                     44                     45
                      A                      A                      A
 Frequencies --   1489.1439              1509.1868              1656.1659
 Red. masses --      1.1123                 1.1048                14.1161
 Frc consts  --      1.4533                 1.4826                22.8124
 IR Inten    --     19.8149                12.1338               207.1110

                     46                     47                     48
                      A                      A                      A
 Frequencies --   1674.2108              2986.6208              3021.9402
 Red. masses --     12.8204                 1.0729                 1.0735
 Frc consts  --     21.1725                 5.6387                 5.7760
 IR Inten    --    308.2672                31.0271                22.6534

                     49                     50                     51
                      A                      A                      A
 Frequencies --   3053.8724              3061.2001              3108.5310
 Red. masses --      1.0708                 1.0616                 1.1039
 Frc consts  --      5.8837                 5.8614                 6.2850
 IR Inten    --     15.7727                17.4880                19.4689

                     52                     53                     54
                      A                      A                      A
 Frequencies --   3153.8624              3174.9943              3223.8331
 Red. masses --      1.0900                 1.0932                 1.0903
 Frc consts  --      6.3879                 6.4927                 6.6766
 IR Inten    --      1.5278                 0.8582                 7.0019

 - Thermochemistry -
 -------------------
 Temperature   298.150 Kelvin.  Pressure   1.00000 Atm.
 Atom     1 has atomic number  6 and mass  12.00000

 Molecular mass:   176.05455 amu.
 Principal axes and moments of inertia in atomic units:
                           1         2         3
     Eigenvalues --  1098.964812500.863243174.94134
           X            0.99994  -0.01097  -0.00258
           Y            0.01095   0.99991  -0.00742
           Z            0.00266   0.00739   0.99997
 This molecule is an asymmetric top.
 Rotational symmetry number  1.
 Warning -- assumption of classical behavior for rotation
           may cause significant error
 Rotational temperatures (Kelvin)      0.07881     0.03463     0.02728
 Rotational constants (GHZ):           1.64222     0.72165     0.56843
 Zero-point vibrational energy     400197.1 (Joules/Mol)
                                   95.64940 (Kcal/Mol)
 Warning -- explicit consideration of  14 degrees of freedom as
           vibrations may cause significant error
 Vibrational temperatures:     78.95   103.89   125.59   151.78   271.65
          (Kelvin)            362.07   408.56   498.63   575.27   600.85
                              637.35   737.08   834.21   873.82   919.90
                             1033.94  1123.51  1134.02  1195.46  1234.16
                             1271.38  1295.84  1363.20  1403.03  1442.65
                             1517.06  1546.87  1666.87  1712.36  1757.34
                             1825.72  1847.71  1882.44  1915.38  1931.99
                             1944.40  1961.67  1988.82  2017.62  2051.11
                             2124.47  2131.10  2142.54  2171.38  2382.85
                             2408.81  4297.08  4347.89  4393.84  4404.38
                             4472.48  4537.70  4568.10  4638.37

 Zero-point correction=                           0.152427 (Hartree/Particle)
 Thermal correction to Energy=                    0.162647
 Thermal correction to Enthalpy=                  0.163591
 Thermal correction to Gibbs Free Energy=         0.115483
 Sum of electronic and zero-point Energies=           -676.806907
 Sum of electronic and thermal Energies=              -676.796687
 Sum of electronic and thermal Enthalpies=            -676.795743
 Sum of electronic and thermal Free Energies=         -676.843851

                     E (Thermal)             CV                S
                      KCal/Mol        Cal/Mol-Kelvin    Cal/Mol-Kelvin
 Total                  102.063             37.739            101.253
 Electronic               0.000              0.000              0.000
 Translational            0.889              2.981             41.404
 Rotational               0.889              2.981             30.546
 Vibrational            100.285             31.778             29.303
 Vibration     1          0.596              1.976              4.634
 Vibration     2          0.598              1.967              4.092
 Vibration     3          0.601              1.958              3.720
 Vibration     4          0.605              1.945              3.350
 Vibration     5          0.633              1.855              2.240
 Vibration     6          0.664              1.760              1.719
 Vibration     7          0.682              1.703              1.510
 Vibration     8          0.725              1.582              1.182
 Vibration     9          0.766              1.470              0.963
 Vibration    10          0.781              1.432              0.900
 Vibration    11          0.803              1.376              0.817
 Vibration    12          0.867              1.223              0.628
 Vibration    13          0.936              1.075              0.486
 Vibration    14          0.966              1.016              0.437

 Normal termination of Gaussian 09 at Thu Aug 26 13:20:07 2021.

 -----------------------------------------------------------------
 #P Geom=AllCheck Guess=TCheck SCRF=Check CCSD(T,E4T,FrzG4)/GTBas1
 -----------------------------------------------------------------

 Structure from the checkpoint file:  "/public/home/users/caep010/.cache/gau_scr/Gau-99649.chk"
 ------
 KOFKAR
 ------
 Charge =  0 Multiplicity = 1

 SCF Done:  E(RHF) =  -673.073997434     A.U. after   14 cycles
 E2 =    -0.1932558415D+01 EUMP2 =    -0.67500655584872D+03
 CCSD(T)
 CCSD(T)= -0.67511045968D+03
 Q=-675.0386371\CCSD=-675.0312846\CCSD(T)=-675.1104597\RMSD=8.134e-09\P
 Normal termination of Gaussian 09 at Thu Aug 26 14:28:09 2021.

 ---------------------------------------------------------
 #P Geom=AllCheck Guess=TCheck SCRF=Check MP4=FrzG4/GTBas2
 ---------------------------------------------------------

 Structure from the checkpoint file:  "/public/home/users/caep010/.cache/gau_scr/Gau-99649.chk"
 ------
 KOFKAR
 ------
 Charge =  0 Multiplicity = 1

 SCF Done:  E(RHF) =  -673.092102158     A.U. after   13 cycles
 E2 =    -0.1959440814D+01 EUMP2 =    -0.67505154297255D+03
 Normal termination of Gaussian 09 at Thu Aug 26 14:52:45 2021.

 ---------------------------------------------------------
 #P Geom=AllCheck Guess=TCheck SCRF=Check MP4=FrzG4/GTBas3
 ---------------------------------------------------------

 Structure from the checkpoint file:  "/public/home/users/caep010/.cache/gau_scr/Gau-99649.chk"
 ------
 KOFKAR
 ------
 Charge =  0 Multiplicity = 1

 SCF Done:  E(RHF) =  -673.145640974     A.U. after   12 cycles
 E2 =    -0.2327741572D+01 EUMP2 =    -0.67547338254631D+03
 Normal termination of Gaussian 09 at Thu Aug 26 18:31:24 2021.

 -----------------------------------------------------------
 #P Geom=AllCheck Guess=TCheck SCRF=Check MP2=Full/GTLargeXP
 -----------------------------------------------------------

 Structure from the checkpoint file:  "/public/home/users/caep010/.cache/gau_scr/Gau-99649.chk"
 ------
 KOFKAR
 ------
 Charge =  0 Multiplicity = 1

 SCF Done:  E(RHF) =  -673.318300887     A.U. after   12 cycles
 E2 =    -0.3011711464D+01 EUMP2 =    -0.67633001235054D+03
 Normal termination of Gaussian 09 at Thu Aug 26 18:50:53 2021.
 SCF Done:  E(RHF) =  -673.372487702     A.U. after   10 cycles
 Normal termination of Gaussian 09 at Thu Aug 26 18:57:10 2021.

                         Standard orientation:
 ---------------------------------------------------------------------
 Center     Atomic      Atomic             Coordinates (Angstroms)
 Number     Number       Type             X           Y           Z
 ---------------------------------------------------------------------
      1          6           0        0.099961   -0.500631    0.963300
      2          7           0       -1.265189   -0.081604    0.732204
      3          7           0       -1.971901   -0.832647   -0.235154
      4          8           0       -2.938300   -0.290949   -0.746344
      5          6           0       -1.466748    1.371364    0.685249
      6          6           0       -0.549832    2.005049   -0.365760
      7          1           0       -0.623626    3.095575   -0.321826
      8          8           0       -1.595685   -1.973877   -0.431639
      9          7           0        0.985721    0.134201   -0.023665
     10          7           0        2.258320   -0.428121   -0.129600
     11          8           0        2.400764   -1.557691    0.315510
     12          8           0        3.113440    0.241496   -0.687590
     13          1           0        0.366908   -0.193328    1.983481
     14          1           0        0.180294   -1.576544    0.871703
     15          1           0       -0.876050    1.689920   -1.361792
     16          1           0       -2.517416    1.567715    0.489305
     17          6           0        0.909780    1.593809   -0.141221
     18          1           0        1.539849    1.896495   -0.975263
     19          1           0        1.307829    2.067169    0.770348
     20          1           0       -1.227172    1.740819    1.688652
 ---------------------------------------------------------------------

 SCF Done:  E(RHF) =  -673.383470576     A.U. after    8 cycles

 The electronic state is 1-A.
 Alpha  occ. eigenvalues --  -20.61418 -20.61392 -20.60954 -20.60900 -15.89848
 Alpha  occ. eigenvalues --  -15.89606 -15.66636 -15.66195 -11.34390 -11.30526
 Alpha  occ. eigenvalues --  -11.30437 -11.26846  -1.63986  -1.63550  -1.42552
 Alpha  occ. eigenvalues --   -1.41986  -1.34594  -1.27875  -1.10858  -1.03275
 Alpha  occ. eigenvalues --   -1.00605  -0.90772  -0.87300  -0.82688  -0.80588
 Alpha  occ. eigenvalues --   -0.78607  -0.75735  -0.75365  -0.75100  -0.74518
 Alpha  occ. eigenvalues --   -0.68395  -0.66562  -0.65693  -0.63054  -0.61995
 Alpha  occ. eigenvalues --   -0.58073  -0.55040  -0.54416  -0.52624  -0.52385
 Alpha  occ. eigenvalues --   -0.50419  -0.50219  -0.47822  -0.47450  -0.44664
 Alpha  occ. eigenvalues --   -0.44228
 Alpha virt. eigenvalues --    0.02047   0.03064   0.03696   0.04514   0.05658
 Alpha virt. eigenvalues --    0.05916   0.06202   0.06707   0.07289   0.08207
 Alpha virt. eigenvalues --    0.08751   0.08914   0.09243   0.09756   0.10159

 Mulliken charges:
               1
     1  C   -0.266355
     2  N    0.037084
     3  N    0.543127
     4  O   -0.427314
     5  C   -0.301106
     6  C   -0.315051
     7  H    0.196315
     8  O   -0.416715
     9  N    0.023615
    10  N    0.523244
    11  O   -0.429956
    12  O   -0.423529
    13  H    0.216316
    14  H    0.285674
    15  H    0.199993
    16  H    0.236287
    17  C   -0.310391
    18  H    0.240958
    19  H    0.184380
    20  H    0.203423
 Sum of Mulliken charges =  -0.00000

 Dipole moment (field-independent basis, Debye):
    X=             -1.1874    Y=              5.1698    Z=              2.8112  Tot=              6.0032
 Quadrupole moment (field-independent basis, Debye-Ang):
   XX=            -89.5965   YY=            -69.4987   ZZ=            -67.5382
   XY=             -1.2527   XZ=             -1.7083   YZ=             -0.6972

 Normal termination of Gaussian 09 at Thu Aug 26 19:38:44 2021.
