 Gaussian 09, Revision E.01,
 Gaussian 09:  ES64L-G09RevE.01 30-Nov-2015

 ----------------
 #P G4 OPT=calcfc
 ----------------

 ------
 KOTSIV
 ------
 Symbolic Z-matrix:
 Charge =  0 Multiplicity = 1

 SCF Done:  E(RB3LYP) =  -606.661355065     A.U. after   15 cycles
 SCF Done:  E(RB3LYP) =  -606.680410077     A.U. after   16 cycles
 SCF Done:  E(RB3LYP) =  -606.663459671     A.U. after   15 cycles
 SCF Done:  E(RB3LYP) =  -606.680741132     A.U. after   10 cycles
 SCF Done:  E(RB3LYP) =  -606.673624744     A.U. after   13 cycles
 SCF Done:  E(RB3LYP) =  -606.680947732     A.U. after   11 cycles
 SCF Done:  E(RB3LYP) =  -606.645894609     A.U. after   13 cycles
 SCF Done:  E(RB3LYP) =  -606.681094193     A.U. after    9 cycles
 SCF Done:  E(RB3LYP) =  -606.681302407     A.U. after   11 cycles
 SCF Done:  E(RB3LYP) =  -606.681314841     A.U. after    9 cycles
 SCF Done:  E(RB3LYP) =  -606.681334791     A.U. after   10 cycles
 SCF Done:  E(RB3LYP) =  -606.681338073     A.U. after    9 cycles
 SCF Done:  E(RB3LYP) =  -606.681338863     A.U. after    8 cycles
 Optimization completed.
    -- Stationary point found.
 Normal termination of Gaussian 09 at Wed Aug 25 18:15:04 2021.

 ----------------------------------------------------------
 #P Geom=AllCheck Guess=TCheck SCRF=Check B3LYP/GTBas3 Freq
 ----------------------------------------------------------

 Structure from the checkpoint file:  "/public/home/users/caep010/.cache/gau_scr/Gau-64094.chk"
 ------
 KOTSIV
 ------
 Charge =  0 Multiplicity = 1

 SCF Done:  E(RB3LYP) =  -606.681338863     A.U. after    1 cycles

  Exact polarizability: 154.227   6.630 121.309  -0.001   0.283  47.972
 Approx polarizability: 266.079  16.567 214.013  -1.957  -0.026  77.416

                      1                      2                      3
                      A                      A                      A
 Frequencies --     63.6705                93.9847               115.1975
 Red. masses --      7.6630                 3.7693                 5.6911
 Frc consts  --      0.0183                 0.0196                 0.0445
 IR Inten    --      0.4688                 4.1128                 0.4617

                      4                      5                      6
                      A                      A                      A
 Frequencies --    169.0098               194.3741               260.7259
 Red. masses --      4.7323                 1.9484                 1.6055
 Frc consts  --      0.0796                 0.0434                 0.0643
 IR Inten    --      3.8369                 1.4263                 1.9778

                      7                      8                      9
                      A                      A                      A
 Frequencies --    262.5515               341.0679               344.0208
 Red. masses --      4.2032                 3.9271                 3.8084
 Frc consts  --      0.1707                 0.2692                 0.2656
 IR Inten    --      2.3505                 0.4225                18.1483

                     10                     11                     12
                      A                      A                      A
 Frequencies --    363.6221               404.4117               458.1944
 Red. masses --      8.9949                 1.1748                 1.6388
 Frc consts  --      0.7007                 0.1132                 0.2027
 IR Inten    --      2.5754                80.8652               111.9587

                     13                     14                     15
                      A                      A                      A
 Frequencies --    484.5824               499.0338               541.9061
 Red. masses --      2.1527                 5.2924                 4.6106
 Frc consts  --      0.2978                 0.7765                 0.7977
 IR Inten    --    170.4748                10.6838                27.7136

                     16                     17                     18
                      A                      A                      A
 Frequencies --    577.6703               579.8067               654.8437
 Red. masses --      4.1622                 4.8972                 7.1580
 Frc consts  --      0.8183                 0.9700                 1.8085
 IR Inten    --      3.0710                 0.8645                 3.4786

                     19                     20                     21
                      A                      A                      A
 Frequencies --    742.7936               775.8519               806.1598
 Red. masses --      3.8747                 4.7020                 5.9191
 Frc consts  --      1.2596                 1.6676                 2.2665
 IR Inten    --      4.4209                26.3082                36.8431

                     22                     23                     24
                      A                      A                      A
 Frequencies --    829.4779               843.2521               899.5004
 Red. masses --      5.4564                 1.6883                 1.4573
 Frc consts  --      2.2119                 0.7073                 0.6947
 IR Inten    --      6.3149                10.7155                14.9855

                     25                     26                     27
                      A                      A                      A
 Frequencies --    946.1884               956.5453              1057.0656
 Red. masses --      5.3615                 1.3500                 2.5789
 Frc consts  --      2.8281                 0.7278                 1.6978
 IR Inten    --      4.7110                 3.0346                19.6441

                     28                     29                     30
                      A                      A                      A
 Frequencies --   1083.4135              1119.0045              1165.2581
 Red. masses --      1.9455                 2.2692                 1.2057
 Frc consts  --      1.3455                 1.6741                 0.9646
 IR Inten    --     24.0743               105.2899                10.0799

                     31                     32                     33
                      A                      A                      A
 Frequencies --   1178.9456              1215.4465              1262.8460
 Red. masses --      1.2764                 1.4454                 4.9671
 Frc consts  --      1.0453                 1.2581                 4.6672
 IR Inten    --      1.0889                 2.7550               223.1521

                     34                     35                     36
                      A                      A                      A
 Frequencies --   1291.2393              1340.6612              1379.9391
 Red. masses --      1.5348                 2.9345                11.7567
 Frc consts  --      1.5077                 3.1075                13.1903
 IR Inten    --      4.5652               233.7951               475.0181

                     37                     38                     39
                      A                      A                      A
 Frequencies --   1411.4972              1460.0929              1487.2189
 Red. masses --      5.0422                 2.5681                 1.4817
 Frc consts  --      5.9188                 3.2257                 1.9310
 IR Inten    --     12.5214                 9.6062                 3.2757

                     40                     41                     42
                      A                      A                      A
 Frequencies --   1489.5005              1506.1418              1547.7129
 Red. masses --      1.0454                 1.0683                 3.2821
 Frc consts  --      1.3665                 1.4279                 4.6322
 IR Inten    --      6.6021                33.3726               133.0855

                     43                     44                     45
                      A                      A                      A
 Frequencies --   1598.6892              1619.4792              1647.4610
 Red. masses --     10.4705                 2.0184                 6.5840
 Frc consts  --     15.7668                 3.1189                10.5286
 IR Inten    --    223.1965                13.0443                67.1174

                     46                     47                     48
                      A                      A                      A
 Frequencies --   1655.1419              3014.2065              3077.8255
 Red. masses --      2.2273                 1.0337                 1.1052
 Frc consts  --      3.5950                 5.5334                 6.1686
 IR Inten    --    182.8736                40.3920                28.6580

                     49                     50                     51
                      A                      A                      A
 Frequencies --   3141.3106              3179.5818              3240.1925
 Red. masses --      1.1005                 1.0893                 1.0919
 Frc consts  --      6.3982                 6.4886                 6.7543
 IR Inten    --     18.2844                12.0461                 1.3579

                     52                     53                     54
                      A                      A                      A
 Frequencies --   3252.8289              3592.3641              3707.2645
 Red. masses --      1.0895                 1.0455                 1.1011
 Frc consts  --      6.7919                 7.9493                 8.9166
 IR Inten    --      4.3737                70.7459                35.1115

 - Thermochemistry -
 -------------------
 Temperature   298.150 Kelvin.  Pressure   1.00000 Atm.
 Atom     1 has atomic number  6 and mass  12.00000

 Molecular mass:   168.05349 amu.
 Principal axes and moments of inertia in atomic units:
                           1         2         3
     Eigenvalues --  1136.873682691.422643815.75485
           X            0.99978  -0.02111   0.00189
           Y            0.02110   0.99977   0.00221
           Z           -0.00194  -0.00217   1.00000
 This molecule is an asymmetric top.
 Rotational symmetry number  1.
 Warning -- assumption of classical behavior for rotation
           may cause significant error
 Rotational temperatures (Kelvin)      0.07619     0.03218     0.02270
 Rotational constants (GHZ):           1.58746     0.67055     0.47297
 Zero-point vibrational energy     400334.9 (Joules/Mol)
                                   95.68234 (Kcal/Mol)
 Warning -- explicit consideration of  17 degrees of freedom as
           vibrations may cause significant error
 Vibrational temperatures:     91.61   135.22   165.74   243.17   279.66
          (Kelvin)            375.13   377.75   490.72   494.97   523.17
                              581.86   659.24   697.21   718.00   779.68
                              831.14   834.21   942.17  1068.71  1116.28
                             1159.88  1193.43  1213.25  1294.18  1361.35
                             1376.25  1520.88  1558.79  1610.00  1676.54
                             1696.24  1748.75  1816.95  1857.80  1928.91
                             1985.42  2030.83  2100.75  2139.77  2143.06
                             2167.00  2226.81  2300.15  2330.07  2370.33
                             2381.38  4336.77  4428.30  4519.64  4574.70
                             4661.91  4680.09  5168.60  5333.92

 Zero-point correction=                           0.152480 (Hartree/Particle)
 Thermal correction to Energy=                    0.163229
 Thermal correction to Enthalpy=                  0.164173
 Thermal correction to Gibbs Free Energy=         0.115915
 Sum of electronic and zero-point Energies=           -606.528859
 Sum of electronic and thermal Energies=              -606.518110
 Sum of electronic and thermal Enthalpies=            -606.517166
 Sum of electronic and thermal Free Energies=         -606.565424

                     E (Thermal)             CV                S
                      KCal/Mol        Cal/Mol-Kelvin    Cal/Mol-Kelvin
 Total                  102.427             40.724            101.567
 Electronic               0.000              0.000              0.000
 Translational            0.889              2.981             41.265
 Rotational               0.889              2.981             30.835
 Vibrational            100.650             34.762             29.467
 Vibration     1          0.597              1.972              4.340
 Vibration     2          0.603              1.953              3.575
 Vibration     3          0.608              1.937              3.179
 Vibration     4          0.625              1.881              2.446
 Vibration     5          0.635              1.848              2.186
 Vibration     6          0.669              1.745              1.657
 Vibration     7          0.670              1.741              1.645
 Vibration     8          0.721              1.593              1.207
 Vibration     9          0.723              1.587              1.193
 Vibration    10          0.737              1.547              1.107
 Vibration    11          0.770              1.461              0.947
 Vibration    12          0.816              1.343              0.771
 Vibration    13          0.841              1.284              0.698
 Vibration    14          0.854              1.252              0.661
 Vibration    15          0.897              1.157              0.561
 Vibration    16          0.934              1.080              0.490
 Vibration    17          0.936              1.075              0.486

 Normal termination of Gaussian 09 at Wed Aug 25 18:17:28 2021.

 -----------------------------------------------------------------
 #P Geom=AllCheck Guess=TCheck SCRF=Check CCSD(T,E4T,FrzG4)/GTBas1
 -----------------------------------------------------------------

 Structure from the checkpoint file:  "/public/home/users/caep010/.cache/gau_scr/Gau-64094.chk"
 ------
 KOTSIV
 ------
 Charge =  0 Multiplicity = 1

 SCF Done:  E(RHF) =  -603.081277651     A.U. after   15 cycles
 E2 =    -0.1771820857D+01 EUMP2 =    -0.60485309850850D+03
 CCSD(T)
 CCSD(T)= -0.60496397151D+03
 \MP4SDTQ=-604.9789437\MP4SDQ=-604.8917103\CCSD=-604.8880501\CCSD(T)=-6
 Normal termination of Gaussian 09 at Wed Aug 25 19:14:34 2021.

 ---------------------------------------------------------
 #P Geom=AllCheck Guess=TCheck SCRF=Check MP4=FrzG4/GTBas2
 ---------------------------------------------------------

 Structure from the checkpoint file:  "/public/home/users/caep010/.cache/gau_scr/Gau-64094.chk"
 ------
 KOTSIV
 ------
 Charge =  0 Multiplicity = 1

 SCF Done:  E(RHF) =  -603.099218484     A.U. after   17 cycles
 E2 =    -0.1796295541D+01 EUMP2 =    -0.60489551402525D+03
 Normal termination of Gaussian 09 at Wed Aug 25 19:35:54 2021.

 ---------------------------------------------------------
 #P Geom=AllCheck Guess=TCheck SCRF=Check MP4=FrzG4/GTBas3
 ---------------------------------------------------------

 Structure from the checkpoint file:  "/public/home/users/caep010/.cache/gau_scr/Gau-64094.chk"
 ------
 KOTSIV
 ------
 Charge =  0 Multiplicity = 1

 SCF Done:  E(RHF) =  -603.146714430     A.U. after   13 cycles
 E2 =    -0.2129725189D+01 EUMP2 =    -0.60527643961947D+03
 Normal termination of Gaussian 09 at Wed Aug 25 22:05:48 2021.

 -----------------------------------------------------------
 #P Geom=AllCheck Guess=TCheck SCRF=Check MP2=Full/GTLargeXP
 -----------------------------------------------------------

 Structure from the checkpoint file:  "/public/home/users/caep010/.cache/gau_scr/Gau-64094.chk"
 ------
 KOTSIV
 ------
 Charge =  0 Multiplicity = 1

 SCF Done:  E(RHF) =  -603.297256578     A.U. after   15 cycles
 E2 =    -0.2790714133D+01 EUMP2 =    -0.60608797071027D+03
 Normal termination of Gaussian 09 at Wed Aug 25 22:26:31 2021.
 SCF Done:  E(RHF) =  -603.345423075     A.U. after   10 cycles
 Normal termination of Gaussian 09 at Wed Aug 25 22:32:30 2021.

                         Standard orientation:
 ---------------------------------------------------------------------
 Center     Atomic      Atomic             Coordinates (Angstroms)
 Number     Number       Type             X           Y           Z
 ---------------------------------------------------------------------
      1          6           0       -1.444860   -1.154934    0.008626
      2          6           0       -1.194333    0.243330    0.007867
      3          6           0        0.100236    0.724464    0.005503
      4          6           0        1.163102   -0.185343    0.001677
      5          6           0        0.949305   -1.556281   -0.003159
      6          6           0       -0.354363   -2.031629   -0.000812
      7          7           0       -2.746575   -1.593297    0.061828
      8          1           0       -2.930823   -2.534803   -0.243960
      9          1           0       -0.540736   -3.100735   -0.001350
     10          8           0       -2.320327    1.013293    0.003272
     11          6           0       -2.162603    2.421843   -0.009915
     12          7           0        2.524821    0.331434   -0.001023
     13          8           0        2.676187    1.551650    0.003465
     14          1           0       -3.449396   -0.914485   -0.184014
     15          1           0        1.797562   -2.226298   -0.009278
     16          1           0        0.326667    1.779953    0.003358
     17          8           0        3.448019   -0.478285   -0.008013
     18          1           0       -3.169594    2.841007   -0.014130
     19          1           0       -1.624653    2.755518   -0.905725
     20          1           0       -1.626688    2.770915    0.880957
 ---------------------------------------------------------------------

 SCF Done:  E(RHF) =  -603.354924599     A.U. after    7 cycles

 The electronic state is 1-A.
 Alpha  occ. eigenvalues --  -20.60350 -20.58533 -20.58526 -15.84058 -15.58691
 Alpha  occ. eigenvalues --  -11.31637 -11.31255 -11.30022 -11.29038 -11.26518
 Alpha  occ. eigenvalues --  -11.26489 -11.25065  -1.58877  -1.43293  -1.38201
 Alpha  occ. eigenvalues --   -1.25221  -1.17500  -1.06582  -1.04587  -0.97614
 Alpha  occ. eigenvalues --   -0.93328  -0.85280  -0.81960  -0.77323  -0.74210
 Alpha  occ. eigenvalues --   -0.72257  -0.70765  -0.70673  -0.69063  -0.67609
 Alpha  occ. eigenvalues --   -0.65369  -0.63243  -0.60933  -0.58738  -0.56840
 Alpha  occ. eigenvalues --   -0.53496  -0.52801  -0.50277  -0.48600  -0.48087
 Alpha  occ. eigenvalues --   -0.47819  -0.44472  -0.35691  -0.31398
 Alpha virt. eigenvalues --    0.02767   0.03235   0.04276   0.04376   0.05432
 Alpha virt. eigenvalues --    0.05525   0.06051   0.07145   0.07230   0.07931
 Alpha virt. eigenvalues --    0.08433   0.08750   0.09429   0.09612   0.09793

 Mulliken charges:
               1
     1  C    0.182071
     2  C    0.302800
     3  C   -0.210132
     4  C    0.069676
     5  C   -0.212173
     6  C   -0.209839
     7  N   -0.724293
     8  H    0.314414
     9  H    0.191945
    10  O   -0.344550
    11  C   -0.392425
    12  N    0.537195
    13  O   -0.458688
    14  H    0.338754
    15  H    0.256893
    16  H    0.255813
    17  O   -0.455511
    18  H    0.197696
    19  H    0.179428
    20  H    0.180929
 Sum of Mulliken charges =  -0.00000

 Dipole moment (field-independent basis, Debye):
    X=             -6.3322    Y=             -1.0745    Z=             -0.8041  Tot=              6.4729
 Quadrupole moment (field-independent basis, Debye-Ang):
   XX=            -80.8013   YY=            -58.4677   ZZ=            -72.1063
   XY=             -3.5752   XZ=              2.9332   YZ=              1.6190

 Normal termination of Gaussian 09 at Wed Aug 25 23:08:16 2021.
