 Gaussian 09, Revision E.01,
 Gaussian 09:  ES64L-G09RevE.01 30-Nov-2015

 ----------------
 #P G4 OPT=calcfc
 ----------------

 ------
 KAJFAD
 ------
 Symbolic Z-matrix:
 Charge =  0 Multiplicity = 1

 SCF Done:  E(RB3LYP) =  -661.818684542     A.U. after   16 cycles
 SCF Done:  E(RB3LYP) =  -661.926003020     A.U. after   14 cycles
 SCF Done:  E(RB3LYP) =  -661.985899361     A.U. after   14 cycles
 SCF Done:  E(RB3LYP) =  -661.988354295     A.U. after   14 cycles
 SCF Done:  E(RB3LYP) =  -661.988539250     A.U. after   12 cycles
 SCF Done:  E(RB3LYP) =  -661.988576092     A.U. after   10 cycles
 SCF Done:  E(RB3LYP) =  -661.988593037     A.U. after   11 cycles
 SCF Done:  E(RB3LYP) =  -661.988596492     A.U. after   11 cycles
 SCF Done:  E(RB3LYP) =  -661.988596992     A.U. after    9 cycles
 SCF Done:  E(RB3LYP) =  -661.988597069     A.U. after    8 cycles
 Optimization completed.
    -- Stationary point found.
 Normal termination of Gaussian 09 at Thu Aug 26 13:09:44 2021.

 ----------------------------------------------------------
 #P Geom=AllCheck Guess=TCheck SCRF=Check B3LYP/GTBas3 Freq
 ----------------------------------------------------------

 Structure from the checkpoint file:  "/public/home/users/caep010/.cache/gau_scr/Gau-114173.chk"
 ------
 KAJFAD
 ------
 Charge =  0 Multiplicity = 1

 SCF Done:  E(RB3LYP) =  -661.988597069     A.U. after    1 cycles

  Exact polarizability: 163.333  -5.045 133.849   5.225   6.823  58.798
 Approx polarizability: 301.431 -41.167 260.238  13.400  19.484  93.371

                      1                      2                      3
                      A                      A                      A
 Frequencies --     44.3925                56.1641                71.1015
 Red. masses --      4.5986                 3.0567                 7.5544
 Frc consts  --      0.0053                 0.0057                 0.0225
 IR Inten    --      1.6050                 0.1065                 0.5381

                      4                      5                      6
                      A                      A                      A
 Frequencies --    118.0987               155.7404               198.8402
 Red. masses --      9.6950                 2.2126                 4.7835
 Frc consts  --      0.0797                 0.0316                 0.1114
 IR Inten    --      5.8783                 0.6924                 0.0914

                      7                      8                      9
                      A                      A                      A
 Frequencies --    224.3183               283.8881               334.3223
 Red. masses --      1.5579                 2.6782                 5.6292
 Frc consts  --      0.0462                 0.1272                 0.3707
 IR Inten    --      0.8588                 5.5648                 1.5798

                     10                     11                     12
                      A                      A                      A
 Frequencies --    354.6366               364.4317               443.5528
 Red. masses --      6.2594                 8.8132                 3.4921
 Frc consts  --      0.4638                 0.6896                 0.4048
 IR Inten    --      2.3573                 2.3122                15.5632

                     13                     14                     15
                      A                      A                      A
 Frequencies --    469.2115               504.9536               541.8369
 Red. masses --      3.2916                 3.0820                 2.0531
 Frc consts  --      0.4270                 0.4630                 0.3551
 IR Inten    --      3.6190                15.7526                29.6765

                     16                     17                     18
                      A                      A                      A
 Frequencies --    578.2140               586.0253               617.8126
 Red. masses --      2.4668                 4.3703                 4.1681
 Frc consts  --      0.4859                 0.8843                 0.9374
 IR Inten    --     24.0331                 4.3440                 0.9698

                     19                     20                     21
                      A                      A                      A
 Frequencies --    670.2506               732.8718               772.9023
 Red. masses --      8.1285                 4.2807                 4.0343
 Frc consts  --      2.1515                 1.3546                 1.4199
 IR Inten    --     25.4048                11.1917                21.0135

                     22                     23                     24
                      A                      A                      A
 Frequencies --    778.7910               832.9251               833.8107
 Red. masses --      1.4735                 5.6451                 1.5486
 Frc consts  --      0.5265                 2.3074                 0.6344
 IR Inten    --     13.8973                10.4579                 4.9856

                     25                     26                     27
                      A                      A                      A
 Frequencies --    844.4226               893.1486               906.2584
 Red. masses --      2.9566                 1.5981                 2.4856
 Frc consts  --      1.2421                 0.7511                 1.2028
 IR Inten    --      5.0863                23.8633                 2.3779

                     28                     29                     30
                      A                      A                      A
 Frequencies --    938.6190               970.1936              1074.5515
 Red. masses --      1.3011                 3.8030                 2.5480
 Frc consts  --      0.6754                 2.1091                 1.7335
 IR Inten    --      0.2304                28.1521                 7.6111

                     31                     32                     33
                      A                      A                      A
 Frequencies --   1097.9371              1123.0147              1133.0578
 Red. masses --      1.7015                 1.9616                 1.6275
 Frc consts  --      1.2084                 1.4576                 1.2311
 IR Inten    --     54.6126                51.4523                 2.1846

                     34                     35                     36
                      A                      A                      A
 Frequencies --   1167.2510              1234.5576              1279.5406
 Red. masses --      1.7745                 1.9210                 6.4066
 Frc consts  --      1.4245                 1.7250                 6.1800
 IR Inten    --     33.0116                 2.4938               132.4374

                     37                     38                     39
                      A                      A                      A
 Frequencies --   1288.8159              1331.6505              1369.8256
 Red. masses --      1.5356                 1.2116                 5.1316
 Frc consts  --      1.5029                 1.2658                 5.6733
 IR Inten    --      5.2803                33.1481               427.7126

                     40                     41                     42
                      A                      A                      A
 Frequencies --   1390.7701              1391.6658              1409.2520
 Red. masses --      1.5013                 3.7633                 1.2524
 Frc consts  --      1.7109                 4.2942                 1.4655
 IR Inten    --     35.0403               121.5271                13.2914

                     43                     44                     45
                      A                      A                      A
 Frequencies --   1475.0374              1486.4198              1490.9331
 Red. masses --      2.3839                 1.2474                 1.0762
 Frc consts  --      3.0560                 1.6238                 1.4095
 IR Inten    --     10.2174                15.2893                 0.4113

                     46                     47                     48
                      A                      A                      A
 Frequencies --   1498.3385              1508.9313              1558.2618
 Red. masses --      1.8145                 1.1246                 5.5313
 Frc consts  --      2.4001                 1.5086                 7.9133
 IR Inten    --      9.3096                13.4593                78.4817

                     49                     50                     51
                      A                      A                      A
 Frequencies --   1598.3481              1639.9175              1674.8945
 Red. masses --      5.9266                11.6981                 6.8256
 Frc consts  --      8.9208                18.5358                11.2814
 IR Inten    --    302.2962               174.1105               225.8396

                     52                     53                     54
                      A                      A                      A
 Frequencies --   3040.4037              3042.4612              3085.4613
 Red. masses --      1.0552                 1.0428                 1.1000
 Frc consts  --      5.7471                 5.6874                 6.1701
 IR Inten    --     23.1908                22.3987                 7.1457

                     55                     56                     57
                      A                      A                      A
 Frequencies --   3116.9083              3121.6349              3246.6509
 Red. masses --      1.1016                 1.1034                 1.0892
 Frc consts  --      6.3057                 6.3349                 6.7641
 IR Inten    --     28.0794                28.0664                 1.9337

                     58                     59                     60
                      A                      A                      A
 Frequencies --   3250.5259              3260.2333              3533.7061
 Red. masses --      1.0900                 1.0955                 1.0743
 Frc consts  --      6.7854                 6.8608                 7.9041
 IR Inten    --      4.8916                 7.3410                58.3800

 - Thermochemistry -
 -------------------
 Temperature   298.150 Kelvin.  Pressure   1.00000 Atm.
 Atom     1 has atomic number  8 and mass  15.99491

 Molecular mass:   183.06439 amu.
 Principal axes and moments of inertia in atomic units:
                           1         2         3
     Eigenvalues --  1557.411403142.229994523.79286
           X            0.99724   0.07420  -0.00320
           Y           -0.07421   0.99723  -0.00478
           Z            0.00284   0.00500   0.99998
 This molecule is an asymmetric top.
 Rotational symmetry number  1.
 Warning -- assumption of classical behavior for rotation
           may cause significant error
 Rotational temperatures (Kelvin)      0.05561     0.02756     0.01915
 Rotational constants (GHZ):           1.15881     0.57435     0.39894
 Zero-point vibrational energy     442873.6 (Joules/Mol)
                                  105.84934 (Kcal/Mol)
 Warning -- explicit consideration of  18 degrees of freedom as
           vibrations may cause significant error
 Vibrational temperatures:     63.87    80.81   102.30   169.92   224.08
          (Kelvin)            286.09   322.74   408.45   481.01   510.24
                              524.34   638.17   675.09   726.51   779.58
                              831.92   843.16   888.89   964.34  1054.44
                             1112.03  1120.51  1198.39  1199.67  1214.93
                             1285.04  1303.90  1350.46  1395.89  1546.04
                             1579.68  1615.77  1630.22  1679.41  1776.25
                             1840.97  1854.32  1915.95  1970.87  2001.01
                             2002.29  2027.60  2122.25  2138.62  2145.12
                             2155.77  2171.01  2241.99  2299.66  2359.47
                             2409.80  4374.46  4377.42  4439.29  4484.53
                             4491.33  4671.20  4676.78  4690.74  5084.21

 Zero-point correction=                           0.168682 (Hartree/Particle)
 Thermal correction to Energy=                    0.180370
 Thermal correction to Enthalpy=                  0.181315
 Thermal correction to Gibbs Free Energy=         0.129819
 Sum of electronic and zero-point Energies=           -661.819915
 Sum of electronic and thermal Energies=              -661.808227
 Sum of electronic and thermal Enthalpies=            -661.807282
 Sum of electronic and thermal Free Energies=         -661.858779

                     E (Thermal)             CV                S
                      KCal/Mol        Cal/Mol-Kelvin    Cal/Mol-Kelvin
 Total                  113.184             43.658            108.383
 Electronic               0.000              0.000              0.000
 Translational            0.889              2.981             41.520
 Rotational               0.889              2.981             31.471
 Vibrational            111.407             37.696             35.391
 Vibration     1          0.595              1.980              5.053
 Vibration     2          0.596              1.975              4.588
 Vibration     3          0.598              1.968              4.123
 Vibration     4          0.608              1.934              3.131
 Vibration     5          0.620              1.896              2.601
 Vibration     6          0.637              1.842              2.144
 Vibration     7          0.649              1.804              1.924
 Vibration     8          0.682              1.704              1.510
 Vibration     9          0.716              1.607              1.239
 Vibration    10          0.730              1.566              1.146
 Vibration    11          0.738              1.545              1.103
 Vibration    12          0.803              1.375              0.816
 Vibration    13          0.826              1.318              0.740
 Vibration    14          0.860              1.239              0.646
 Vibration    15          0.897              1.158              0.561
 Vibration    16          0.935              1.078              0.489
 Vibration    17          0.943              1.062              0.474
 Vibration    18          0.978              0.994              0.420

 Optimization completed.
    -- Stationary point found.
 Normal termination of Gaussian 09 at Thu Aug 26 13:12:57 2021.

 -----------------------------------------------------------------
 #P Geom=AllCheck Guess=TCheck SCRF=Check CCSD(T,E4T,FrzG4)/GTBas1
 -----------------------------------------------------------------

 Structure from the checkpoint file:  "/public/home/users/caep010/.cache/gau_scr/Gau-114173.chk"
 ------
 KAJFAD
 ------
 Charge =  0 Multiplicity = 1

 SCF Done:  E(RHF) =  -658.035764815     A.U. after   16 cycles
 E2 =    -0.1962022192D+01 EUMP2 =    -0.65999778700677D+03
 CCSD(T)
 CCSD(T)= -0.66011669435D+03
 -660.0295956\CCSD(T)=-660.1166944\RMSD=6.295e-09\PG=C01 [X(C7H9N3O3)]\
 Normal termination of Gaussian 09 at Thu Aug 26 15:15:22 2021.

 ---------------------------------------------------------
 #P Geom=AllCheck Guess=TCheck SCRF=Check MP4=FrzG4/GTBas2
 ---------------------------------------------------------

 Structure from the checkpoint file:  "/public/home/users/caep010/.cache/gau_scr/Gau-114173.chk"
 ------
 KAJFAD
 ------
 Charge =  0 Multiplicity = 1

 SCF Done:  E(RHF) =  -658.055799012     A.U. after   16 cycles
 E2 =    -0.1988325983D+01 EUMP2 =    -0.66004412499406D+03
 Normal termination of Gaussian 09 at Thu Aug 26 15:57:26 2021.

 ---------------------------------------------------------
 #P Geom=AllCheck Guess=TCheck SCRF=Check MP4=FrzG4/GTBas3
 ---------------------------------------------------------

 Structure from the checkpoint file:  "/public/home/users/caep010/.cache/gau_scr/Gau-114173.chk"
 ------
 KAJFAD
 ------
 Charge =  0 Multiplicity = 1

 SCF Done:  E(RHF) =  -658.106701244     A.U. after   13 cycles
 E2 =    -0.2352076598D+01 EUMP2 =    -0.66045877784166D+03
 Normal termination of Gaussian 09 at Thu Aug 26 21:13:31 2021.

 -----------------------------------------------------------
 #P Geom=AllCheck Guess=TCheck SCRF=Check MP2=Full/GTLargeXP
 -----------------------------------------------------------

 Structure from the checkpoint file:  "/public/home/users/caep010/.cache/gau_scr/Gau-114173.chk"
 ------
 KAJFAD
 ------
 Charge =  0 Multiplicity = 1

 SCF Done:  E(RHF) =  -658.270563837     A.U. after   15 cycles
 E2 =    -0.3070965469D+01 EUMP2 =    -0.66134152930590D+03
 Normal termination of Gaussian 09 at Thu Aug 26 21:27:28 2021.
 SCF Done:  E(RHF) =  -658.322901878     A.U. after   10 cycles
 Normal termination of Gaussian 09 at Thu Aug 26 21:34:52 2021.

                         Standard orientation:
 ---------------------------------------------------------------------
 Center     Atomic      Atomic             Coordinates (Angstroms)
 Number     Number       Type             X           Y           Z
 ---------------------------------------------------------------------
      1          8           0       -1.801839    2.439405    0.025032
      2          7           0       -0.763860    1.688194    0.010084
      3          6           0       -0.943819    0.320376   -0.207435
      4          6           0        0.485369    2.192765    0.198293
      5          6           0        1.606432    1.392115    0.189247
      6          1           0        2.590797    1.807668    0.342564
      7          1           0        0.495110    3.262052    0.352726
      8          6           0        1.428921    0.029499   -0.018375
      9          6           0        0.167991   -0.515753   -0.213544
     10          1           0        0.063130   -1.578890   -0.369476
     11          7           0        2.593822   -0.856048   -0.027570
     12          8           0        2.396041   -2.053298   -0.205677
     13          7           0       -2.231558   -0.019415   -0.410873
     14          6           0       -2.733441   -1.377097   -0.499881
     15          6           0       -2.885518   -2.078576    0.855125
     16          1           0       -3.576032   -1.528380    1.501171
     17          1           0       -2.852570    0.772020   -0.276775
     18          1           0       -2.073873   -1.956463   -1.156564
     19          1           0       -3.701269   -1.326822   -1.007116
     20          8           0        3.694806   -0.345495    0.143554
     21          1           0       -3.277181   -3.090905    0.715708
     22          1           0       -1.924606   -2.154273    1.372421
 ---------------------------------------------------------------------

 SCF Done:  E(RHF) =  -658.333214930     A.U. after    8 cycles

 The electronic state is 1-A.
 Alpha  occ. eigenvalues --  -20.61634 -20.61552 -20.52402 -15.86907 -15.73463
 Alpha  occ. eigenvalues --  -15.59705 -11.36504 -11.33819 -11.31959 -11.29093
 Alpha  occ. eigenvalues --  -11.28508 -11.27950 -11.23786  -1.61951  -1.46707
 Alpha  occ. eigenvalues --   -1.41327  -1.28407  -1.22375  -1.13773  -1.08420
 Alpha  occ. eigenvalues --   -1.02692  -0.99934  -0.92911  -0.87386  -0.84546
 Alpha  occ. eigenvalues --   -0.80206  -0.76931  -0.73554  -0.73451  -0.71169
 Alpha  occ. eigenvalues --   -0.70342  -0.67532  -0.67002  -0.65498  -0.62067
 Alpha  occ. eigenvalues --   -0.60256  -0.59690  -0.58043  -0.54503  -0.52237
 Alpha  occ. eigenvalues --   -0.51470  -0.51130  -0.50961  -0.47521  -0.46817
 Alpha  occ. eigenvalues --   -0.44301  -0.37002  -0.32152
 Alpha virt. eigenvalues --    0.00900   0.02834   0.03576   0.03693   0.04516
 Alpha virt. eigenvalues --    0.05252   0.05628   0.05840   0.06907   0.07083
 Alpha virt. eigenvalues --    0.07645   0.07892   0.08076   0.08147   0.08540

 Mulliken charges:
               1
     1  O   -0.672503
     2  N    0.100462
     3  C    0.344224
     4  C   -0.093663
     5  C   -0.175564
     6  H    0.272987
     7  H    0.258890
     8  C    0.203053
     9  C   -0.155461
    10  H    0.269386
    11  N    0.510332
    12  O   -0.427047
    13  N   -0.525993
    14  C   -0.267633
    15  C   -0.509485
    16  H    0.174375
    17  H    0.395516
    18  H    0.178546
    19  H    0.198387
    20  O   -0.425274
    21  H    0.173703
    22  H    0.172763
 Sum of Mulliken charges =  -0.00000

 Dipole moment (field-independent basis, Debye):
    X=             -2.3350    Y=             -1.0379    Z=              0.0180  Tot=              2.5553
 Quadrupole moment (field-independent basis, Debye-Ang):
   XX=            -84.9778   YY=            -81.2605   ZZ=            -76.7711
   XY=             19.6019   XZ=              1.1541   YZ=              1.1848

 Normal termination of Gaussian 09 at Thu Aug 26 22:23:53 2021.
