 Gaussian 09, Revision E.01,
 Gaussian 09:  ES64L-G09RevE.01 30-Nov-2015

 ----------------
 #P G4 OPT=calcfc
 ----------------

 ------
 KOMHAV
 ------
 Symbolic Z-matrix:
 Charge =  0 Multiplicity = 1

 SCF Done:  E(RB3LYP) =  -430.666786456     A.U. after   15 cycles
 SCF Done:  E(RB3LYP) =  -430.733055142     A.U. after   13 cycles
 SCF Done:  E(RB3LYP) =  -430.742401404     A.U. after   14 cycles
 SCF Done:  E(RB3LYP) =  -430.745522318     A.U. after   13 cycles
 SCF Done:  E(RB3LYP) =  -430.745706845     A.U. after   11 cycles
 SCF Done:  E(RB3LYP) =  -430.745740764     A.U. after    9 cycles
 SCF Done:  E(RB3LYP) =  -430.745745179     A.U. after    8 cycles
 SCF Done:  E(RB3LYP) =  -430.745746453     A.U. after    7 cycles
 Optimization completed.
    -- Stationary point found.
 Normal termination of Gaussian 09 at Fri Aug 27 05:37:00 2021.

 ----------------------------------------------------------
 #P Geom=AllCheck Guess=TCheck SCRF=Check B3LYP/GTBas3 Freq
 ----------------------------------------------------------

 Structure from the checkpoint file:  "/public/home/users/caep010/.cache/gau_scr/Gau-222747.chk"
 ------
 KOMHAV
 ------
 Charge =  0 Multiplicity = 1

 SCF Done:  E(RB3LYP) =  -430.745746453     A.U. after    1 cycles

  Exact polarizability:  78.743  -0.532  63.527   0.000  -0.000  27.352
 Approx polarizability: 122.644  -6.597 132.086   0.000  -0.000  43.958

                      1                      2                      3
                      A                      A                      A
 Frequencies --     78.8041               219.9487               234.3396
 Red. masses --      7.9364                 6.2033                 7.3344
 Frc consts  --      0.0290                 0.1768                 0.2373
 IR Inten    --      3.3641                 0.4632                 1.7064

                      4                      5                      6
                      A                      A                      A
 Frequencies --    441.7908               545.5365               577.5286
 Red. masses --     10.6162                 8.8423                 1.8475
 Frc consts  --      1.2208                 1.5505                 0.3631
 IR Inten    --      1.0828                 0.4145                77.6465

                      7                      8                      9
                      A                      A                      A
 Frequencies --    643.4555               681.2778               769.7945
 Red. masses --      2.3523                 2.5927                 1.9232
 Frc consts  --      0.5738                 0.7090                 0.6715
 IR Inten    --     28.3096                 0.0424                15.1343

                     10                     11                     12
                      A                      A                      A
 Frequencies --    810.8938               836.3008               850.8033
 Red. masses --      2.4701                12.9427                 1.5918
 Frc consts  --      0.9570                 5.3333                 0.6789
 IR Inten    --      4.1241                51.3732                16.9889

                     13                     14                     15
                      A                      A                      A
 Frequencies --    943.4496               982.8000              1085.1047
 Red. masses --      5.3230                 3.8027                 1.8052
 Frc consts  --      2.7916                 2.1641                 1.2523
 IR Inten    --      1.0592                 6.7177                35.5606

                     16                     17                     18
                      A                      A                      A
 Frequencies --   1122.6590              1242.2100              1290.7487
 Red. masses --      1.6550                 1.6492                 4.0062
 Frc consts  --      1.2290                 1.4993                 3.9325
 IR Inten    --      7.3742                 9.3956                20.3931

                     19                     20                     21
                      A                      A                      A
 Frequencies --   1376.2164              1413.7762              1432.4909
 Red. masses --      6.3416                 5.3460                 3.5180
 Frc consts  --      7.0766                 6.2957                 4.2534
 IR Inten    --     21.9623               228.7876                15.9889

                     22                     23                     24
                      A                      A                      A
 Frequencies --   1529.3764              1566.6430              1640.3541
 Red. masses --      4.1777                 4.2919                13.4890
 Frc consts  --      5.7573                 6.2065                21.3847
 IR Inten    --     47.0632                 2.6770               234.5368

                     25                     26                     27
                      A                      A                      A
 Frequencies --   3263.4084              3307.6589              3652.8287
 Red. masses --      1.0974                 1.1004                 1.0815
 Frc consts  --      6.8860                 7.0929                 8.5022
 IR Inten    --      0.3769                 6.5973                78.7806

 - Thermochemistry -
 -------------------
 Temperature   298.150 Kelvin.  Pressure   1.00000 Atm.
 Atom     1 has atomic number  7 and mass  14.00307

 Molecular mass:   113.02253 amu.
 Principal axes and moments of inertia in atomic units:
                           1         2         3
     Eigenvalues --   327.739721056.001651383.74137
           X            0.99999  -0.00332   0.00000
           Y            0.00332   0.99999  -0.00000
           Z           -0.00000   0.00000   1.00000
 This molecule is an asymmetric top.
 Rotational symmetry number  1.
 Rotational temperatures (Kelvin)      0.26428     0.08202     0.06259
 Rotational constants (GHZ):           5.50663     1.70903     1.30425
 Zero-point vibrational energy     194633.6 (Joules/Mol)
                                   46.51855 (Kcal/Mol)
 Warning -- explicit consideration of   6 degrees of freedom as
           vibrations may cause significant error
 Vibrational temperatures:    113.38   316.46   337.16   635.64   784.90
          (Kelvin)            830.93   925.79   980.21  1107.56  1166.69
                             1203.25  1224.11  1357.41  1414.03  1561.22
                             1615.25  1787.26  1857.10  1980.07  2034.11
                             2061.03  2200.43  2254.05  2360.10  4695.31
                             4758.98  5255.60

 Zero-point correction=                           0.074132 (Hartree/Particle)
 Thermal correction to Energy=                    0.080163
 Thermal correction to Enthalpy=                  0.081107
 Thermal correction to Gibbs Free Energy=         0.043425
 Sum of electronic and zero-point Energies=           -430.671614
 Sum of electronic and thermal Energies=              -430.665584
 Sum of electronic and thermal Enthalpies=            -430.664639
 Sum of electronic and thermal Free Energies=         -430.702321

                     E (Thermal)             CV                S
                      KCal/Mol        Cal/Mol-Kelvin    Cal/Mol-Kelvin
 Total                   50.303             21.645             79.308
 Electronic               0.000              0.000              0.000
 Translational            0.889              2.981             40.083
 Rotational               0.889              2.981             27.662
 Vibrational             48.525             15.684             11.563
 Vibration     1          0.600              1.963              3.920
 Vibration     2          0.647              1.811              1.960
 Vibration     3          0.654              1.788              1.845
 Vibration     4          0.802              1.379              0.821
 Vibration     5          0.901              1.149              0.553
 Vibration     6          0.934              1.080              0.490

 Optimization completed.
    -- Stationary point found.
 Normal termination of Gaussian 09 at Fri Aug 27 05:37:39 2021.

 -----------------------------------------------------------------
 #P Geom=AllCheck Guess=TCheck SCRF=Check CCSD(T,E4T,FrzG4)/GTBas1
 -----------------------------------------------------------------

 Structure from the checkpoint file:  "/public/home/users/caep010/.cache/gau_scr/Gau-222747.chk"
 ------
 KOMHAV
 ------
 Charge =  0 Multiplicity = 1

 SCF Done:  E(RHF) =  -428.278848121     A.U. after   15 cycles
 E2 =    -0.1245817997D+01 EUMP2 =    -0.42952466611727D+03
 CCSD(T)
 CCSD(T)= -0.42958545508D+03
 29.5347872\CCSD=-429.5305409\CCSD(T)=-429.5854551\RMSD=6.026e-09\PG=C0
 Normal termination of Gaussian 09 at Fri Aug 27 05:43:00 2021.

 ---------------------------------------------------------
 #P Geom=AllCheck Guess=TCheck SCRF=Check MP4=FrzG4/GTBas2
 ---------------------------------------------------------

 Structure from the checkpoint file:  "/public/home/users/caep010/.cache/gau_scr/Gau-222747.chk"
 ------
 KOMHAV
 ------
 Charge =  0 Multiplicity = 1

 SCF Done:  E(RHF) =  -428.292295952     A.U. after   14 cycles
 E2 =    -0.1262385331D+01 EUMP2 =    -0.42955468128223D+03
 Normal termination of Gaussian 09 at Fri Aug 27 05:44:39 2021.

 ---------------------------------------------------------
 #P Geom=AllCheck Guess=TCheck SCRF=Check MP4=FrzG4/GTBas3
 ---------------------------------------------------------

 Structure from the checkpoint file:  "/public/home/users/caep010/.cache/gau_scr/Gau-222747.chk"
 ------
 KOMHAV
 ------
 Charge =  0 Multiplicity = 1

 SCF Done:  E(RHF) =  -428.323341556     A.U. after   13 cycles
 E2 =    -0.1478295047D+01 EUMP2 =    -0.42980163660283D+03
 Normal termination of Gaussian 09 at Fri Aug 27 05:52:52 2021.

 -----------------------------------------------------------
 #P Geom=AllCheck Guess=TCheck SCRF=Check MP2=Full/GTLargeXP
 -----------------------------------------------------------

 Structure from the checkpoint file:  "/public/home/users/caep010/.cache/gau_scr/Gau-222747.chk"
 ------
 KOMHAV
 ------
 Charge =  0 Multiplicity = 1

 SCF Done:  E(RHF) =  -428.434202144     A.U. after   14 cycles
 E2 =    -0.1925430252D+01 EUMP2 =    -0.43035963239665D+03
 Normal termination of Gaussian 09 at Fri Aug 27 05:57:05 2021.
 SCF Done:  E(RHF) =  -428.467941412     A.U. after    9 cycles
 Normal termination of Gaussian 09 at Fri Aug 27 05:59:51 2021.

                         Standard orientation:
 ---------------------------------------------------------------------
 Center     Atomic      Atomic             Coordinates (Angstroms)
 Number     Number       Type             X           Y           Z
 ---------------------------------------------------------------------
      1          7           0       -2.056848    0.609937    0.000021
      2          6           0       -1.971501   -0.758727   -0.000013
      3          7           0       -0.727186   -1.166685   -0.000005
      4          6           0        0.005238   -0.018825    0.000009
      5          6           0       -0.783107    1.104751    0.000004
      6          7           0        1.450199   -0.012912    0.000002
      7          8           0        2.033268   -1.083457    0.000005
      8          1           0       -0.545852    2.153382   -0.000002
      9          1           0       -2.902401    1.157876   -0.000067
     10          8           0        1.982647    1.096480   -0.000012
     11          1           0       -2.846010   -1.391006   -0.000011
 ---------------------------------------------------------------------

 SCF Done:  E(RHF) =  -428.474620626     A.U. after    8 cycles

 The electronic state is 1-A.
 Alpha  occ. eigenvalues --  -20.59738 -20.58808 -15.84898 -15.66536 -15.58938
 Alpha  occ. eigenvalues --  -11.33710 -11.32295 -11.31830  -1.59884  -1.39224
 Alpha  occ. eigenvalues --   -1.39081  -1.22103  -1.09500  -0.97949  -0.87441
 Alpha  occ. eigenvalues --   -0.81699  -0.80345  -0.72634  -0.71901  -0.71544
 Alpha  occ. eigenvalues --   -0.64999  -0.64394  -0.63854  -0.49483  -0.49131
 Alpha  occ. eigenvalues --   -0.48540  -0.45172  -0.44475  -0.36669
 Alpha virt. eigenvalues --    0.01437   0.03319   0.04236   0.05166   0.05519
 Alpha virt. eigenvalues --    0.06422   0.06780   0.07518   0.08019   0.08591
 Alpha virt. eigenvalues --    0.09657   0.10269   0.12061   0.12509   0.13080

 Mulliken charges:
               1
     1  N   -0.359121
     2  C    0.104553
     3  N   -0.452350
     4  C    0.256505
     5  C   -0.101941
     6  N    0.488764
     7  O   -0.376246
     8  H    0.274810
     9  H    0.381438
    10  O   -0.454400
    11  H    0.237988
 Sum of Mulliken charges =  -0.00000

 Dipole moment (field-independent basis, Debye):
    X=             -7.5509    Y=              2.9045    Z=             -0.0001  Tot=              8.0903
 Quadrupole moment (field-independent basis, Debye-Ang):
   XX=            -39.6791   YY=            -46.2530   ZZ=            -45.6764
   XY=             -2.9881   XZ=              0.0005   YZ=             -0.0002

 Normal termination of Gaussian 09 at Fri Aug 27 06:11:14 2021.
