 Gaussian 09, Revision E.01,
 Gaussian 09:  ES64L-G09RevE.01 30-Nov-2015

 ----------------
 #P G4 OPT=calcfc
 ----------------

 ------
 KOFKEV
 ------
 Symbolic Z-matrix:
 Charge =  0 Multiplicity = 1

 SCF Done:  E(RB3LYP) =  -716.177815002     A.U. after   15 cycles
 SCF Done:  E(RB3LYP) =  -716.247307340     A.U. after   13 cycles
 SCF Done:  E(RB3LYP) =  -716.272371344     A.U. after   15 cycles
 SCF Done:  E(RB3LYP) =  -716.274639208     A.U. after   13 cycles
 SCF Done:  E(RB3LYP) =  -716.274886655     A.U. after   12 cycles
 SCF Done:  E(RB3LYP) =  -716.274927526     A.U. after   11 cycles
 SCF Done:  E(RB3LYP) =  -716.274934179     A.U. after    9 cycles
 SCF Done:  E(RB3LYP) =  -716.274935316     A.U. after    7 cycles
 SCF Done:  E(RB3LYP) =  -716.274935426     A.U. after    7 cycles
 Optimization completed.
    -- Stationary point found.
 Normal termination of Gaussian 09 at Thu Aug 26 21:52:35 2021.

 ----------------------------------------------------------
 #P Geom=AllCheck Guess=TCheck SCRF=Check B3LYP/GTBas3 Freq
 ----------------------------------------------------------

 Structure from the checkpoint file:  "/public/home/users/caep010/.cache/gau_scr/Gau-2533.chk"
 ------
 KOFKEV
 ------
 Charge =  0 Multiplicity = 1

 SCF Done:  E(RB3LYP) =  -716.274935426     A.U. after    1 cycles

  Exact polarizability: 112.153   8.117  94.864   1.396  -0.447  83.048
 Approx polarizability: 175.602  17.848 146.390   0.666  -2.719 149.552

                      1                      2                      3
                      A                      A                      A
 Frequencies --     48.9761                61.8087                96.7430
 Red. masses --      5.1971                 9.9326                14.3318
 Frc consts  --      0.0073                 0.0224                 0.0790
 IR Inten    --      2.1093                 0.5773                 0.1988

                      4                      5                      6
                      A                      A                      A
 Frequencies --    112.0962               151.8156               184.9607
 Red. masses --      6.1772                 3.1138                 5.3571
 Frc consts  --      0.0457                 0.0423                 0.1080
 IR Inten    --      0.3003                 0.7282                 2.8978

                      7                      8                      9
                      A                      A                      A
 Frequencies --    254.2326               278.4517               317.6918
 Red. masses --      4.7495                 4.0955                 2.6905
 Frc consts  --      0.1809                 0.1871                 0.1600
 IR Inten    --      4.1229                 0.3222                 4.6716

                     10                     11                     12
                      A                      A                      A
 Frequencies --    349.4268               404.5718               426.4284
 Red. masses --      2.6458                 4.4569                 4.0646
 Frc consts  --      0.1903                 0.4298                 0.4355
 IR Inten    --      1.9245                 1.6845                 5.1057

                     13                     14                     15
                      A                      A                      A
 Frequencies --    449.8400               498.1699               586.8172
 Red. masses --      2.1852                 1.9576                 5.8340
 Frc consts  --      0.2605                 0.2862                 1.1836
 IR Inten    --      4.2878                 1.7353                 6.9895

                     16                     17                     18
                      A                      A                      A
 Frequencies --    609.7641               637.2505               713.1857
 Red. masses --      4.0683                 5.0385                 4.0180
 Frc consts  --      0.8912                 1.2055                 1.2041
 IR Inten    --      9.4393                 9.4478                13.8787

                     19                     20                     21
                      A                      A                      A
 Frequencies --    775.8929               784.5237               794.3906
 Red. masses --      8.7619                 6.9130                 4.7630
 Frc consts  --      3.1078                 2.5069                 1.7709
 IR Inten    --      6.9874                15.5018                 4.5935

                     22                     23                     24
                      A                      A                      A
 Frequencies --    839.4011               845.0555               877.1702
 Red. masses --      1.9784                 4.8912                 3.0096
 Frc consts  --      0.8213                 2.0579                 1.3644
 IR Inten    --     14.2686                 1.0813                 1.2270

                     25                     26                     27
                      A                      A                      A
 Frequencies --    924.7660               953.4440               959.5980
 Red. masses --      1.5732                 2.9085                 2.9726
 Frc consts  --      0.7927                 1.5578                 1.6127
 IR Inten    --      9.6404                89.6632                59.8258

                     28                     29                     30
                      A                      A                      A
 Frequencies --    996.1253              1052.6026              1077.2790
 Red. masses --      2.2652                 2.5870                 2.3687
 Frc consts  --      1.3243                 1.6888                 1.6196
 IR Inten    --     22.0388                93.9054                 9.0515

                     31                     32                     33
                      A                      A                      A
 Frequencies --   1104.5785              1146.2384              1221.7336
 Red. masses --      2.1818                 1.9053                 2.7307
 Frc consts  --      1.5684                 1.4749                 2.4014
 IR Inten    --     11.1040                14.7454                35.0792

                     34                     35                     36
                      A                      A                      A
 Frequencies --   1224.1274              1253.9873              1281.3048
 Red. masses --      1.4269                 2.0824                 1.7005
 Frc consts  --      1.2598                 1.9293                 1.6448
 IR Inten    --     35.0117                 8.9267                33.7290

                     37                     38                     39
                      A                      A                      A
 Frequencies --   1310.1245              1315.5462              1342.5924
 Red. masses --      1.4277                 3.7062                 2.1998
 Frc consts  --      1.4438                 3.7791                 2.3363
 IR Inten    --     45.7488               210.3029               107.8659

                     40                     41                     42
                      A                      A                      A
 Frequencies --   1353.8773              1364.6986              1378.8125
 Red. masses --      2.0319                 1.3870                 1.3854
 Frc consts  --      2.1944                 1.5220                 1.5518
 IR Inten    --    186.1566                29.6860                 0.4421

                     43                     44                     45
                      A                      A                      A
 Frequencies --   1390.6244              1395.4668              1410.4641
 Red. masses --      1.3721                 1.4089                 1.4773
 Frc consts  --      1.5633                 1.6165                 1.7316
 IR Inten    --      2.7114                 0.1987                26.1072

                     46                     47                     48
                      A                      A                      A
 Frequencies --   1430.1063              1471.1695              1481.1399
 Red. masses --      1.4840                 1.0988                 1.0981
 Frc consts  --      1.7882                 1.4012                 1.4194
 IR Inten    --     37.7064                 4.9757                 2.6380

                     49                     50                     51
                      A                      A                      A
 Frequencies --   1484.3005              1498.6288              1516.2185
 Red. masses --      1.0986                 1.1375                 1.0939
 Frc consts  --      1.4261                 1.5052                 1.4816
 IR Inten    --     16.1213                63.3941                 3.3510

                     52                     53                     54
                      A                      A                      A
 Frequencies --   1649.6929              1659.6778              3019.5444
 Red. masses --     13.0570                12.8308                 1.0719
 Frc consts  --     20.9362                20.8234                 5.7581
 IR Inten    --    219.1154               305.8739                 7.1879

                     55                     56                     57
                      A                      A                      A
 Frequencies --   3033.2320              3039.8065              3056.3935
 Red. masses --      1.0649                 1.0608                 1.0721
 Frc consts  --      5.7723                 5.7752                 5.9007
 IR Inten    --     20.2818                15.2077                 5.5645

                     58                     59                     60
                      A                      A                      A
 Frequencies --   3077.9529              3079.3047              3088.0449
 Red. masses --      1.0763                 1.0944                 1.0966
 Frc consts  --      6.0075                 6.1143                 6.1609
 IR Inten    --     11.1418                19.2154                49.2298

                     61                     62                     63
                      A                      A                      A
 Frequencies --   3116.6001              3150.0771              3179.3589
 Red. masses --      1.0916                 1.0952                 1.0945
 Frc consts  --      6.2473                 6.4029                 6.5184
 IR Inten    --      7.9555                 2.0276                 7.1821

 - Thermochemistry -
 -------------------
 Temperature   298.150 Kelvin.  Pressure   1.00000 Atm.
 Atom     1 has atomic number  6 and mass  12.00000

 Molecular mass:   190.07020 amu.
 Principal axes and moments of inertia in atomic units:
                           1         2         3
     Eigenvalues --  1526.914122460.332053279.38959
           X            0.99893   0.04576   0.00596
           Y           -0.04563   0.99877  -0.01953
           Z           -0.00685   0.01924   0.99979
 This molecule is an asymmetric top.
 Rotational symmetry number  1.
 Warning -- assumption of classical behavior for rotation
           may cause significant error
 Rotational temperatures (Kelvin)      0.05672     0.03520     0.02641
 Rotational constants (GHZ):           1.18195     0.73354     0.55033
 Zero-point vibrational energy     476041.4 (Joules/Mol)
                                  113.77662 (Kcal/Mol)
 Warning -- explicit consideration of  16 degrees of freedom as
           vibrations may cause significant error
 Vibrational temperatures:     70.47    88.93   139.19   161.28   218.43
          (Kelvin)            266.12   365.78   400.63   457.09   502.75
                              582.09   613.53   647.22   716.75   844.30
                              877.31   916.86  1026.11  1116.34  1128.75
                             1142.95  1207.71  1215.84  1262.05  1330.53
                             1371.79  1380.65  1433.20  1514.46  1549.96
                             1589.24  1649.18  1757.80  1761.24  1804.21
                             1843.51  1884.97  1892.78  1931.69  1947.93
                             1963.49  1983.80  2000.80  2007.76  2029.34
                             2057.60  2116.68  2131.03  2135.57  2156.19
                             2181.50  2373.54  2387.90  4344.45  4364.14
                             4373.60  4397.46  4428.48  4430.43  4443.00
                             4484.09  4532.25  4574.38

 Zero-point correction=                           0.181315 (Hartree/Particle)
 Thermal correction to Energy=                    0.192700
 Thermal correction to Enthalpy=                  0.193644
 Thermal correction to Gibbs Free Energy=         0.143120
 Sum of electronic and zero-point Energies=           -716.093621
 Sum of electronic and thermal Energies=              -716.082236
 Sum of electronic and thermal Enthalpies=            -716.081291
 Sum of electronic and thermal Free Energies=         -716.131816

                     E (Thermal)             CV                S
                      KCal/Mol        Cal/Mol-Kelvin    Cal/Mol-Kelvin
 Total                  120.921             42.509            106.337
 Electronic               0.000              0.000              0.000
 Translational            0.889              2.981             41.632
 Rotational               0.889              2.981             30.889
 Vibrational            119.144             36.547             33.816
 Vibration     1          0.595              1.978              4.858
 Vibration     2          0.597              1.973              4.399
 Vibration     3          0.603              1.952              3.519
 Vibration     4          0.607              1.939              3.232
 Vibration     5          0.619              1.901              2.649
 Vibration     6          0.631              1.860              2.278
 Vibration     7          0.665              1.756              1.701
 Vibration     8          0.679              1.713              1.543
 Vibration     9          0.704              1.640              1.322
 Vibration    10          0.727              1.576              1.169
 Vibration    11          0.770              1.460              0.946
 Vibration    12          0.788              1.413              0.870
 Vibration    13          0.809              1.361              0.796
 Vibration    14          0.854              1.254              0.663
 Vibration    15          0.944              1.060              0.473
 Vibration    16          0.969              1.011              0.433

 Optimization completed.
    -- Stationary point found.
 Normal termination of Gaussian 09 at Thu Aug 26 21:56:21 2021.

 -----------------------------------------------------------------
 #P Geom=AllCheck Guess=TCheck SCRF=Check CCSD(T,E4T,FrzG4)/GTBas1
 -----------------------------------------------------------------

 Structure from the checkpoint file:  "/public/home/users/caep010/.cache/gau_scr/Gau-2533.chk"
 ------
 KOFKEV
 ------
 Charge =  0 Multiplicity = 1

 SCF Done:  E(RHF) =  -712.105776545     A.U. after   15 cycles
 E2 =    -0.2066130786D+01 EUMP2 =    -0.71417190733102D+03
 CCSD(T)
 CCSD(T)= -0.71429105659D+03
 5\MP4SDTQ=-714.312344\MP4SDQ=-714.2142112\CCSD=-714.2070945\CCSD(T)=-7
 Normal termination of Gaussian 09 at Thu Aug 26 23:56:07 2021.

 ---------------------------------------------------------
 #P Geom=AllCheck Guess=TCheck SCRF=Check MP4=FrzG4/GTBas2
 ---------------------------------------------------------

 Structure from the checkpoint file:  "/public/home/users/caep010/.cache/gau_scr/Gau-2533.chk"
 ------
 KOFKEV
 ------
 Charge =  0 Multiplicity = 1

 SCF Done:  E(RHF) =  -712.123834075     A.U. after   13 cycles
 E2 =    -0.2095422036D+01 EUMP2 =    -0.71421925611101D+03
 Normal termination of Gaussian 09 at Fri Aug 27 00:50:56 2021.

 ---------------------------------------------------------
 #P Geom=AllCheck Guess=TCheck SCRF=Check MP4=FrzG4/GTBas3
 ---------------------------------------------------------

 Structure from the checkpoint file:  "/public/home/users/caep010/.cache/gau_scr/Gau-2533.chk"
 ------
 KOFKEV
 ------
 Charge =  0 Multiplicity = 1

 SCF Done:  E(RHF) =  -712.182048328     A.U. after   12 cycles
 E2 =    -0.2495688145D+01 EUMP2 =    -0.71467773647272D+03
 Normal termination of Gaussian 09 at Fri Aug 27 07:02:38 2021.

 -----------------------------------------------------------
 #P Geom=AllCheck Guess=TCheck SCRF=Check MP2=Full/GTLargeXP
 -----------------------------------------------------------

 Structure from the checkpoint file:  "/public/home/users/caep010/.cache/gau_scr/Gau-2533.chk"
 ------
 KOFKEV
 ------
 Charge =  0 Multiplicity = 1

 SCF Done:  E(RHF) =  -712.361087202     A.U. after   13 cycles
 E2 =    -0.3232789579D+01 EUMP2 =    -0.71559387678067D+03
 Normal termination of Gaussian 09 at Fri Aug 27 07:16:04 2021.
 SCF Done:  E(RHF) =  -712.418123269     A.U. after   10 cycles
 Normal termination of Gaussian 09 at Fri Aug 27 07:24:43 2021.

                         Standard orientation:
 ---------------------------------------------------------------------
 Center     Atomic      Atomic             Coordinates (Angstroms)
 Number     Number       Type             X           Y           Z
 ---------------------------------------------------------------------
      1          6           0       -0.197281   -0.218342    1.245400
      2          7           0       -1.046923    0.551195    0.341385
      3          7           0       -2.271667   -0.019756    0.002802
      4          8           0       -2.714869   -0.887740    0.740432
      5          8           0       -2.826232    0.438155   -0.986164
      6          6           0       -0.530913    1.541595   -0.612132
      7          6           0        0.719432    2.287447   -0.121790
      8          6           0        2.048091    1.525139   -0.249475
      9          6           0        2.203316    0.364832    0.737795
     10          1           0        2.882071    2.217977   -0.089782
     11          1           0        2.151773    1.138825   -1.269900
     12          7           0        1.090746   -0.582702    0.692975
     13          7           0        1.091587   -1.531552   -0.322178
     14          8           0        0.048249   -2.144016   -0.497308
     15          8           0        2.137800   -1.686545   -0.936271
     16          1           0       -0.762024   -1.104032    1.523603
     17          1           0        0.021513    0.365397    2.143191
     18          1           0        2.235275    0.736997    1.767169
     19          1           0        3.122333   -0.189096    0.552375
     20          1           0       -1.336235    2.257444   -0.780960
     21          1           0        0.786425    3.188344   -0.740221
     22          1           0        0.568088    2.640743    0.906393
     23          1           0       -0.330870    1.064245   -1.581053
 ---------------------------------------------------------------------

 SCF Done:  E(RHF) =  -712.429702100     A.U. after    7 cycles

 The electronic state is 1-A.
 Alpha  occ. eigenvalues --  -20.60846 -20.60799 -20.59813 -20.59591 -15.89593
 Alpha  occ. eigenvalues --  -15.88579 -15.66234 -15.65371 -11.34409 -11.30208
 Alpha  occ. eigenvalues --  -11.29670 -11.26486 -11.25819  -1.63558  -1.62397
 Alpha  occ. eigenvalues --   -1.41950  -1.40814  -1.33560  -1.27814  -1.11556
 Alpha  occ. eigenvalues --   -1.03982  -1.03360  -0.95741  -0.89628  -0.83302
 Alpha  occ. eigenvalues --   -0.81628  -0.79703  -0.78155  -0.76453  -0.74989
 Alpha  occ. eigenvalues --   -0.74652  -0.73269  -0.68700  -0.66135  -0.65126
 Alpha  occ. eigenvalues --   -0.63142  -0.61638  -0.59849  -0.58022  -0.55188
 Alpha  occ. eigenvalues --   -0.52809  -0.52095  -0.51719  -0.51319  -0.50165
 Alpha  occ. eigenvalues --   -0.48611  -0.47567  -0.46423  -0.44343  -0.42324
 Alpha virt. eigenvalues --    0.01847   0.02930   0.03314   0.04228   0.05056
 Alpha virt. eigenvalues --    0.05420   0.06006   0.06900   0.07105   0.08085
 Alpha virt. eigenvalues --    0.08561   0.08710   0.09013   0.09602   0.09908

 Mulliken charges:
               1
     1  C   -0.283111
     2  N   -0.045232
     3  N    0.620383
     4  O   -0.434809
     5  O   -0.450892
     6  C   -0.310720
     7  C   -0.337526
     8  C   -0.345359
     9  C   -0.290216
    10  H    0.184250
    11  H    0.200674
    12  N    0.053182
    13  N    0.531701
    14  O   -0.424497
    15  O   -0.438694
    16  H    0.286377
    17  H    0.240397
    18  H    0.198467
    19  H    0.227421
    20  H    0.221675
    21  H    0.205962
    22  H    0.184991
    23  H    0.205575
 Sum of Mulliken charges =  -0.00000

 Dipole moment (field-independent basis, Debye):
    X=              4.4699    Y=              5.3194    Z=              2.9562  Tot=              7.5509
 Quadrupole moment (field-independent basis, Debye-Ang):
   XX=            -88.8874   YY=            -78.7193   ZZ=            -74.8572
   XY=              2.4101   XZ=              2.0647   YZ=             -3.1328

 Normal termination of Gaussian 09 at Fri Aug 27 08:14:56 2021.
