 Gaussian 09, Revision E.01,
 Gaussian 09:  ES64L-G09RevE.01 30-Nov-2015

 ----------------
 #P G4 OPT=calcfc
 ----------------

 ------
 KAYTUZ
 ------
 Symbolic Z-matrix:
 Charge =  0 Multiplicity = 1

 SCF Done:  E(RB3LYP) =  -626.018447590     A.U. after   15 cycles
 SCF Done:  E(RB3LYP) =  -626.094063805     A.U. after   13 cycles
 SCF Done:  E(RB3LYP) =  -626.122096921     A.U. after   14 cycles
 SCF Done:  E(RB3LYP) =  -626.124177071     A.U. after   12 cycles
 SCF Done:  E(RB3LYP) =  -626.124404821     A.U. after   11 cycles
 SCF Done:  E(RB3LYP) =  -626.124426972     A.U. after   11 cycles
 SCF Done:  E(RB3LYP) =  -626.124432817     A.U. after    9 cycles
 SCF Done:  E(RB3LYP) =  -626.124434899     A.U. after   10 cycles
 SCF Done:  E(RB3LYP) =  -626.124435507     A.U. after    9 cycles
 SCF Done:  E(RB3LYP) =  -626.124435543     A.U. after    7 cycles
 Optimization completed.
    -- Stationary point found.
 Normal termination of Gaussian 09 at Wed Aug 25 08:58:46 2021.

 ----------------------------------------------------------
 #P Geom=AllCheck Guess=TCheck SCRF=Check B3LYP/GTBas3 Freq
 ----------------------------------------------------------

 Structure from the checkpoint file:  "/public/home/users/caep010/.cache/gau_scr/Gau-55295.chk"
 ------
 KAYTUZ
 ------
 Charge =  0 Multiplicity = 1

 SCF Done:  E(RB3LYP) =  -626.124435542     A.U. after    1 cycles

  Exact polarizability: 194.588  -5.005 114.733  12.475   5.603  65.982
 Approx polarizability: 291.203 -12.754 216.866  25.550  12.783 103.829

                      1                      2                      3
                      A                      A                      A
 Frequencies --     30.4565                49.1174                81.5886
 Red. masses --      5.7808                 5.1996                 6.0510
 Frc consts  --      0.0032                 0.0074                 0.0237
 IR Inten    --      1.0730                 1.6790                 1.5187

                      4                      5                      6
                      A                      A                      A
 Frequencies --    100.7892               115.8093               189.4802
 Red. masses --      4.0463                 2.8087                 4.0414
 Frc consts  --      0.0242                 0.0222                 0.0855
 IR Inten    --      0.4078                 1.0688                 4.2466

                      7                      8                      9
                      A                      A                      A
 Frequencies --    221.9488               284.9518               298.2248
 Red. masses --      4.3616                 1.5485                 6.2569
 Frc consts  --      0.1266                 0.0741                 0.3279
 IR Inten    --     16.1223                23.8246                 5.0206

                     10                     11                     12
                      A                      A                      A
 Frequencies --    329.3397               356.8504               362.7778
 Red. masses --      2.6192                 1.6842                 1.6103
 Frc consts  --      0.1674                 0.1264                 0.1249
 IR Inten    --      9.0037                54.9437                35.6687

                     13                     14                     15
                      A                      A                      A
 Frequencies --    430.9359               464.7207               512.3788
 Red. masses --      3.2131                 2.1823                 2.7761
 Frc consts  --      0.3516                 0.2777                 0.4294
 IR Inten    --      1.2932                 4.6667                 5.6058

                     16                     17                     18
                      A                      A                      A
 Frequencies --    532.9795               561.1915               633.4077
 Red. masses --      5.2838                 3.2021                 5.8636
 Frc consts  --      0.8843                 0.5942                 1.3861
 IR Inten    --      2.8520                 1.4792                 6.1568

                     19                     20                     21
                      A                      A                      A
 Frequencies --    653.5707               715.3802               780.1518
 Red. masses --      5.5989                 3.4162                 2.9920
 Frc consts  --      1.4091                 1.0301                 1.0729
 IR Inten    --     12.3740                 8.4348                28.8753

                     22                     23                     24
                      A                      A                      A
 Frequencies --    784.0560               824.1974               836.1848
 Red. masses --      5.0588                 1.2639                 2.3585
 Frc consts  --      1.8323                 0.5058                 0.9716
 IR Inten    --     11.0866                 2.4516               111.8800

                     25                     26                     27
                      A                      A                      A
 Frequencies --    857.6832               864.2732               876.2040
 Red. masses --      1.9204                 2.8557                 3.5704
 Frc consts  --      0.8323                 1.2568                 1.6150
 IR Inten    --     27.0398                 9.1558                10.2802

                     28                     29                     30
                      A                      A                      A
 Frequencies --    897.9045               962.2534               991.8961
 Red. masses --      1.5928                 1.2958                 1.3581
 Frc consts  --      0.7566                 0.7069                 0.7872
 IR Inten    --    133.4491                 0.0460                 1.2802

                     31                     32                     33
                      A                      A                      A
 Frequencies --   1001.3813              1014.0418              1109.1967
 Red. masses --      1.7279                 2.8047                 3.1006
 Frc consts  --      1.0209                 1.6992                 2.2476
 IR Inten    --     24.5999                 1.7314                 2.5612

                     34                     35                     36
                      A                      A                      A
 Frequencies --   1124.7510              1133.0613              1145.4790
 Red. masses --      2.0962                 2.2702                 1.5334
 Frc consts  --      1.5624                 1.7172                 1.1854
 IR Inten    --     14.1809               138.6377                10.4759

                     37                     38                     39
                      A                      A                      A
 Frequencies --   1189.2703              1211.6124              1282.1691
 Red. masses --      1.3464                 1.3965                 1.3570
 Frc consts  --      1.1220                 1.2078                 1.3144
 IR Inten    --      2.2863                17.1728                 1.0137

                     40                     41                     42
                      A                      A                      A
 Frequencies --   1310.5321              1331.9696              1368.4535
 Red. masses --      1.6402                 1.6514                 2.6691
 Frc consts  --      1.6598                 1.7262                 2.9450
 IR Inten    --    119.5648                87.8524               372.7277

                     43                     44                     45
                      A                      A                      A
 Frequencies --   1381.6937              1390.2617              1395.6686
 Red. masses --      2.0302                 1.8687                 1.8496
 Frc consts  --      2.2836                 2.1281                 2.1227
 IR Inten    --    284.6883                72.7464                16.9245

                     46                     47                     48
                      A                      A                      A
 Frequencies --   1399.1550              1448.5004              1479.6715
 Red. masses --      1.2991                 2.5916                 1.0943
 Frc consts  --      1.4984                 3.2038                 1.4116
 IR Inten    --      2.9988                 3.9851                 3.6992

                     49                     50                     51
                      A                      A                      A
 Frequencies --   1486.7470              1516.4375              1553.2179
 Red. masses --      1.1536                 1.9157                 2.9424
 Frc consts  --      1.5023                 2.5955                 4.1823
 IR Inten    --      2.8074                 2.2509               168.1973

                     52                     53                     54
                      A                      A                      A
 Frequencies --   1594.9211              1642.4237              1645.7539
 Red. masses --      5.9715                 7.6196                 6.4712
 Frc consts  --      8.9498                12.1102                10.3267
 IR Inten    --     87.6191               154.4107               292.0500

                     55                     56                     57
                      A                      A                      A
 Frequencies --   1664.5366              3011.9585              3034.5376
 Red. masses --      1.0905                 1.0628                 1.0598
 Frc consts  --      1.7801                 5.6806                 5.7502
 IR Inten    --     15.4219                36.8841                31.1506

                     58                     59                     60
                      A                      A                      A
 Frequencies --   3062.4207              3082.0349              3168.9226
 Red. masses --      1.1018                 1.1035                 1.0891
 Frc consts  --      6.0879                 6.1761                 6.4436
 IR Inten    --     15.1319                53.8816                12.4280

                     61                     62                     63
                      A                      A                      A
 Frequencies --   3212.0326              3234.0795              3234.4847
 Red. masses --      1.0875                 1.0917                 1.0930
 Frc consts  --      6.6103                 6.7278                 6.7373
 IR Inten    --      8.4006                 0.2637                 3.2585

                     64                     65                     66
                      A                      A                      A
 Frequencies --   3482.3935              3564.3402              3654.8869
 Red. masses --      1.0484                 1.0924                 1.0766
 Frc consts  --      7.4908                 8.1770                 8.4733
 IR Inten    --      0.4354                 0.2319                47.4223

 - Thermochemistry -
 -------------------
 Temperature   298.150 Kelvin.  Pressure   1.00000 Atm.
 Atom     1 has atomic number  6 and mass  12.00000

 Molecular mass:   181.08513 amu.
 Principal axes and moments of inertia in atomic units:
                           1         2         3
     Eigenvalues --   780.131815452.738825838.40749
           X            0.99999   0.00491  -0.00016
           Y           -0.00491   0.99980   0.01957
           Z            0.00026  -0.01957   0.99981
 This molecule is an asymmetric top.
 Rotational symmetry number  1.
 Warning -- assumption of classical behavior for rotation
           may cause significant error
 Rotational temperatures (Kelvin)      0.11102     0.01588     0.01484
 Rotational constants (GHZ):           2.31338     0.33098     0.30912
 Zero-point vibrational energy     509392.1 (Joules/Mol)
                                  121.74762 (Kcal/Mol)
 Warning -- explicit consideration of  17 degrees of freedom as
           vibrations may cause significant error
 Vibrational temperatures:     43.82    70.67   117.39   145.01   166.62
          (Kelvin)            272.62   319.33   409.98   429.08   473.85
                              513.43   521.96   620.02   668.63   737.20
                              766.84   807.43   911.33   940.34  1029.27
                             1122.46  1128.08  1185.83  1203.08  1234.01
                             1243.49  1260.66  1291.88  1384.47  1427.12
                             1440.76  1458.98  1595.88  1618.26  1630.22
                             1648.09  1711.09  1743.24  1844.75  1885.56
                             1916.40  1968.90  1987.95  2000.27  2008.05
                             2013.07  2084.07  2128.91  2139.09  2181.81
                             2234.73  2294.73  2363.08  2367.87  2394.89
                             4333.53  4366.02  4406.13  4434.36  4559.37
                             4621.39  4653.11  4653.70  5010.38  5128.28
                             5258.56

 Zero-point correction=                           0.194017 (Hartree/Particle)
 Thermal correction to Energy=                    0.206265
 Thermal correction to Enthalpy=                  0.207210
 Thermal correction to Gibbs Free Energy=         0.154196
 Sum of electronic and zero-point Energies=           -625.930418
 Sum of electronic and thermal Energies=              -625.918170
 Sum of electronic and thermal Enthalpies=            -625.917226
 Sum of electronic and thermal Free Energies=         -625.970240

                     E (Thermal)             CV                S
                      KCal/Mol        Cal/Mol-Kelvin    Cal/Mol-Kelvin
 Total                  129.433             45.715            111.577
 Electronic               0.000              0.000              0.000
 Translational            0.889              2.981             41.488
 Rotational               0.889              2.981             31.585
 Vibrational            127.656             39.753             38.503
 Vibration     1          0.594              1.984              5.799
 Vibration     2          0.595              1.978              4.853
 Vibration     3          0.600              1.962              3.852
 Vibration     4          0.604              1.948              3.439
 Vibration     5          0.608              1.936              3.169
 Vibration     6          0.633              1.854              2.233
 Vibration     7          0.648              1.808              1.943
 Vibration     8          0.683              1.702              1.504
 Vibration     9          0.691              1.677              1.427
 Vibration    10          0.712              1.617              1.263
 Vibration    11          0.732              1.561              1.136
 Vibration    12          0.737              1.549              1.110
 Vibration    13          0.792              1.403              0.856
 Vibration    14          0.822              1.328              0.752
 Vibration    15          0.867              1.223              0.628
 Vibration    16          0.888              1.177              0.581
 Vibration    17          0.917              1.115              0.521

 Optimization completed.
    -- Stationary point found.
 Normal termination of Gaussian 09 at Wed Aug 25 09:02:08 2021.

 -----------------------------------------------------------------
 #P Geom=AllCheck Guess=TCheck SCRF=Check CCSD(T,E4T,FrzG4)/GTBas1
 -----------------------------------------------------------------

 Structure from the checkpoint file:  "/public/home/users/caep010/.cache/gau_scr/Gau-55295.chk"
 ------
 KAYTUZ
 ------
 Charge =  0 Multiplicity = 1

 SCF Done:  E(RHF) =  -622.284424513     A.U. after   14 cycles
 E2 =    -0.1885309209D+01 EUMP2 =    -0.62416973372270D+03
 CCSD(T)
 CCSD(T)= -0.62430456432D+03
 724\CCSD=-624.2244837\CCSD(T)=-624.3045643\RMSD=7.156e-09\PG=C01 [X(C8
 Normal termination of Gaussian 09 at Wed Aug 25 10:53:14 2021.

 ---------------------------------------------------------
 #P Geom=AllCheck Guess=TCheck SCRF=Check MP4=FrzG4/GTBas2
 ---------------------------------------------------------

 Structure from the checkpoint file:  "/public/home/users/caep010/.cache/gau_scr/Gau-55295.chk"
 ------
 KAYTUZ
 ------
 Charge =  0 Multiplicity = 1

 SCF Done:  E(RHF) =  -622.303244794     A.U. after   17 cycles
 E2 =    -0.1910965997D+01 EUMP2 =    -0.62421421079120D+03
 Normal termination of Gaussian 09 at Wed Aug 25 11:35:59 2021.

 ---------------------------------------------------------
 #P Geom=AllCheck Guess=TCheck SCRF=Check MP4=FrzG4/GTBas3
 ---------------------------------------------------------

 Structure from the checkpoint file:  "/public/home/users/caep010/.cache/gau_scr/Gau-55295.chk"
 ------
 KAYTUZ
 ------
 Charge =  0 Multiplicity = 1

 SCF Done:  E(RHF) =  -622.354528055     A.U. after   12 cycles
 E2 =    -0.2269246795D+01 EUMP2 =    -0.62462377484995D+03
 Normal termination of Gaussian 09 at Wed Aug 25 16:48:58 2021.

 -----------------------------------------------------------
 #P Geom=AllCheck Guess=TCheck SCRF=Check MP2=Full/GTLargeXP
 -----------------------------------------------------------

 Structure from the checkpoint file:  "/public/home/users/caep010/.cache/gau_scr/Gau-55295.chk"
 ------
 KAYTUZ
 ------
 Charge =  0 Multiplicity = 1

 SCF Done:  E(RHF) =  -622.505393891     A.U. after   13 cycles
 E2 =    -0.2977176191D+01 EUMP2 =    -0.62548257008245D+03
 Normal termination of Gaussian 09 at Wed Aug 25 17:01:41 2021.
 SCF Done:  E(RHF) =  -622.554835924     A.U. after    9 cycles
 Normal termination of Gaussian 09 at Wed Aug 25 17:08:50 2021.

                         Standard orientation:
 ---------------------------------------------------------------------
 Center     Atomic      Atomic             Coordinates (Angstroms)
 Number     Number       Type             X           Y           Z
 ---------------------------------------------------------------------
      1          6           0       -0.758738    0.511368   -0.343875
      2          7           0       -2.087684    0.802016   -0.508806
      3          1           0       -2.323296    1.778692   -0.546282
      4          6           0        0.154086    1.562775   -0.099933
      5          6           0        1.499449    1.312954    0.072141
      6          6           0       -0.259148   -0.806966   -0.402765
      7          6           0        1.092019   -1.055353   -0.232746
      8          6           0       -3.118785   -0.141599   -0.908660
      9          1           0       -3.908733    0.431687   -1.406989
     10          6           0       -3.733696   -0.920739    0.272069
     11          7           0       -4.375265   -0.111001    1.302063
     12          1           0       -3.705659    0.555264    1.676325
     13          1           0       -0.929162   -1.638386   -0.578247
     14          1           0        1.485491   -2.062062   -0.278067
     15          1           0       -2.718684   -0.839098   -1.657003
     16          6           0        1.967639    0.000167    0.003963
     17          7           0        3.386679   -0.267058    0.183353
     18          8           0        4.128663    0.690059    0.390564
     19          8           0        3.764616   -1.434068    0.117164
     20          1           0        2.203067    2.113503    0.256625
     21          1           0       -0.214523    2.583200   -0.050963
     22          1           0       -2.953901   -1.521350    0.753851
     23          1           0       -4.470116   -1.627072   -0.130056
     24          1           0       -5.133783    0.434360    0.901555
 ---------------------------------------------------------------------

 SCF Done:  E(RHF) =  -622.564574806     A.U. after    8 cycles

 The electronic state is 1-A.
 Alpha  occ. eigenvalues --  -20.58363 -20.58349 -15.83916 -15.59775 -15.55479
 Alpha  occ. eigenvalues --  -11.32103 -11.28633 -11.28543 -11.27271 -11.27187
 Alpha  occ. eigenvalues --  -11.26754 -11.25074 -11.24927  -1.58742  -1.38075
 Alpha  occ. eigenvalues --   -1.28051  -1.19587  -1.17761  -1.07617  -1.04866
 Alpha  occ. eigenvalues --   -1.00216  -0.93537  -0.87189  -0.85100  -0.81165
 Alpha  occ. eigenvalues --   -0.77064  -0.74470  -0.71574  -0.70536  -0.70173
 Alpha  occ. eigenvalues --   -0.66966  -0.65157  -0.63267  -0.62250  -0.61704
 Alpha  occ. eigenvalues --   -0.60892  -0.58453  -0.54770  -0.54514  -0.52069
 Alpha  occ. eigenvalues --   -0.51397  -0.48472  -0.48010  -0.46823  -0.44351
 Alpha  occ. eigenvalues --   -0.40752  -0.37081  -0.31850
 Alpha virt. eigenvalues --    0.01959   0.03084   0.03705   0.03887   0.04988
 Alpha virt. eigenvalues --    0.05180   0.05514   0.06041   0.06369   0.06883
 Alpha virt. eigenvalues --    0.07566   0.07948   0.08751   0.08944   0.09036

 Mulliken charges:
               1
     1  C    0.404869
     2  N   -0.549092
     3  H    0.344059
     4  C   -0.287589
     5  C   -0.163930
     6  C   -0.284841
     7  C   -0.194103
     8  C   -0.301274
     9  H    0.199240
    10  C   -0.152469
    11  N   -0.695054
    12  H    0.290970
    13  H    0.205189
    14  H    0.261776
    15  H    0.182072
    16  C    0.071594
    17  N    0.521363
    18  O   -0.452752
    19  O   -0.453470
    20  H    0.260907
    21  H    0.180749
    22  H    0.166818
    23  H    0.166379
    24  H    0.278590
 Sum of Mulliken charges =  -0.00000

 Dipole moment (field-independent basis, Debye):
    X=             -7.1574    Y=              2.2204    Z=             -2.1813  Tot=              7.8049
 Quadrupole moment (field-independent basis, Debye-Ang):
   XX=            -98.6033   YY=            -71.3245   ZZ=            -81.7685
   XY=             -2.5914   XZ=              6.6100   YZ=              2.3689

 Normal termination of Gaussian 09 at Wed Aug 25 17:59:51 2021.
