 Gaussian 09, Revision E.01,
 Gaussian 09:  ES64L-G09RevE.01 30-Nov-2015

 ----------------
 #P G4 OPT=calcfc
 ----------------

 ------
 LOLFEX
 ------
 Symbolic Z-matrix:
 Charge =  0 Multiplicity = 1

 SCF Done:  E(RB3LYP) =  -752.064419891     A.U. after   16 cycles
 SCF Done:  E(RB3LYP) =  -752.144703978     A.U. after   13 cycles
 SCF Done:  E(RB3LYP) =  -752.176244944     A.U. after   15 cycles
 SCF Done:  E(RB3LYP) =  -752.177390407     A.U. after   13 cycles
 SCF Done:  E(RB3LYP) =  -752.177605248     A.U. after   14 cycles
 SCF Done:  E(RB3LYP) =  -752.177797421     A.U. after   13 cycles
 SCF Done:  E(RB3LYP) =  -752.177850049     A.U. after   12 cycles
 SCF Done:  E(RB3LYP) =  -752.177858997     A.U. after   11 cycles
 SCF Done:  E(RB3LYP) =  -752.177859612     A.U. after    8 cycles
 Optimization completed.
    -- Stationary point found.
 Normal termination of Gaussian 09 at Thu Aug 26 09:34:55 2021.

 ----------------------------------------------------------
 #P Geom=AllCheck Guess=TCheck SCRF=Check B3LYP/GTBas3 Freq
 ----------------------------------------------------------

 Structure from the checkpoint file:  "/public/home/users/caep010/.cache/gau_scr/Gau-148392.chk"
 ------
 LOLFEX
 ------
 Charge =  0 Multiplicity = 1

 SCF Done:  E(RB3LYP) =  -752.177859612     A.U. after    1 cycles

  Exact polarizability:  89.762   0.537  99.008   0.045   4.600  78.016
 Approx polarizability: 135.485   0.553 175.724   0.543   4.415 136.140

                      1                      2                      3
                      A                      A                      A
 Frequencies --     49.7020                78.5371               102.5114
 Red. masses --      9.9869                12.9147                10.2737
 Frc consts  --      0.0145                 0.0469                 0.0636
 IR Inten    --      0.3094                 0.8206                 4.9232

                      4                      5                      6
                      A                      A                      A
 Frequencies --    113.0656               137.3631               255.9636
 Red. masses --      9.7724                 6.4621                 7.4285
 Frc consts  --      0.0736                 0.0718                 0.2868
 IR Inten    --      0.9441                 3.7831                 6.9153

                      7                      8                      9
                      A                      A                      A
 Frequencies --    278.6792               309.8185               351.8117
 Red. masses --      7.6418                 4.8219                 1.2084
 Frc consts  --      0.3497                 0.2727                 0.0881
 IR Inten    --     16.4740                15.5283               118.1092

                     10                     11                     12
                      A                      A                      A
 Frequencies --    385.2186               402.7488               447.1124
 Red. masses --      3.2453                 2.3923                 1.9421
 Frc consts  --      0.2837                 0.2286                 0.2287
 IR Inten    --      3.0143                 7.9459                19.4287

                     13                     14                     15
                      A                      A                      A
 Frequencies --    470.1483               488.6351               567.9330
 Red. masses --      5.0250                 2.3467                 6.7087
 Frc consts  --      0.6544                 0.3301                 1.2749
 IR Inten    --      2.0076                 0.5787                11.5724

                     16                     17                     18
                      A                      A                      A
 Frequencies --    597.5962               649.2967               672.8413
 Red. masses --      5.7080                 5.9786                 5.4021
 Frc consts  --      1.2010                 1.4850                 1.4409
 IR Inten    --     12.0819                 0.1174                 8.1009

                     19                     20                     21
                      A                      A                      A
 Frequencies --    771.7053               775.7962               809.5843
 Red. masses --     12.7414                11.0603                 4.5729
 Frc consts  --      4.4707                 3.9221                 1.7659
 IR Inten    --      6.6484                 1.9635                53.2237

                     22                     23                     24
                      A                      A                      A
 Frequencies --    825.7133               853.4843               892.4223
 Red. masses --      5.8247                 5.2864                 2.0289
 Frc consts  --      2.3398                 2.2688                 0.9520
 IR Inten    --      5.4270                 2.4406                49.8456

                     25                     26                     27
                      A                      A                      A
 Frequencies --    923.5212               949.9540               957.5261
 Red. masses --      4.2946                 2.4727                 3.1414
 Frc consts  --      2.1581                 1.3147                 1.6970
 IR Inten    --     11.8089                14.9664               134.5035

                     28                     29                     30
                      A                      A                      A
 Frequencies --    964.8350              1061.4394              1080.4036
 Red. masses --      3.5957                 1.9156                 2.6393
 Frc consts  --      1.9721                 1.2716                 1.8152
 IR Inten    --    129.2276                63.9109                37.9294

                     31                     32                     33
                      A                      A                      A
 Frequencies --   1149.3235              1192.6983              1242.8573
 Red. masses --      2.3836                 2.4124                 1.1886
 Frc consts  --      1.8551                 2.0219                 1.0818
 IR Inten    --      8.0153                 9.4007                27.4723

                     34                     35                     36
                      A                      A                      A
 Frequencies --   1269.2358              1279.6188              1309.8633
 Red. masses --      5.0278                 1.7166                 2.6305
 Frc consts  --      4.7721                 1.6560                 2.6591
 IR Inten    --      7.0369                45.3446               144.4678

                     37                     38                     39
                      A                      A                      A
 Frequencies --   1314.2174              1343.5747              1348.4662
 Red. masses --      1.6263                 3.9869                 1.2445
 Frc consts  --      1.6550                 4.2404                 1.3333
 IR Inten    --     57.8688               230.3992                 4.8742

                     40                     41                     42
                      A                      A                      A
 Frequencies --   1370.9610              1386.2719              1397.7196
 Red. masses --      1.5431                 1.2839                 1.5271
 Frc consts  --      1.7088                 1.4537                 1.7578
 IR Inten    --     54.9041                 1.5944                52.1366

                     43                     44                     45
                      A                      A                      A
 Frequencies --   1403.1377              1431.0547              1462.0886
 Red. masses --      1.4383                 1.5850                 1.1044
 Frc consts  --      1.6684                 1.9124                 1.3910
 IR Inten    --     26.6883                14.3858                37.7596

                     46                     47                     48
                      A                      A                      A
 Frequencies --   1468.5446              1487.2029              1655.1379
 Red. masses --      1.1216                 1.1576                12.9356
 Frc consts  --      1.4252                 1.5086                20.8788
 IR Inten    --      9.4022                60.3928               130.3135

                     49                     50                     51
                      A                      A                      A
 Frequencies --   1679.8021              2981.3694              3047.5867
 Red. masses --     12.8622                 1.0834                 1.0714
 Frc consts  --     21.3836                 5.6739                 5.8631
 IR Inten    --    357.8932                48.7692                 5.1794

                     52                     53                     54
                      A                      A                      A
 Frequencies --   3055.3546              3066.8532              3155.4089
 Red. masses --      1.0714                 1.0729                 1.0938
 Frc consts  --      5.8930                 5.9454                 6.4167
 IR Inten    --     33.9156                33.5592                 1.2174

                     55                     56                     57
                      A                      A                      A
 Frequencies --   3174.0905              3213.7832              3801.2936
 Red. masses --      1.0924                 1.0925                 1.0665
 Frc consts  --      6.4845                 6.6480                 9.0797
 IR Inten    --      2.4185                10.8326                49.0313

 - Thermochemistry -
 -------------------
 Temperature   298.150 Kelvin.  Pressure   1.00000 Atm.
 Atom     1 has atomic number  7 and mass  14.00307

 Molecular mass:   192.04947 amu.
 Principal axes and moments of inertia in atomic units:
                           1         2         3
     Eigenvalues --  1535.615172213.612942825.46499
           X            0.99993   0.01160  -0.00292
           Y           -0.01158   0.99991   0.00720
           Z            0.00300  -0.00717   0.99997
 This molecule is an asymmetric top.
 Rotational symmetry number  1.
 Warning -- assumption of classical behavior for rotation
           may cause significant error
 Rotational temperatures (Kelvin)      0.05640     0.03913     0.03065
 Rotational constants (GHZ):           1.17526     0.81529     0.63874
 Zero-point vibrational energy     412190.6 (Joules/Mol)
                                   98.51591 (Kcal/Mol)
 Warning -- explicit consideration of  16 degrees of freedom as
           vibrations may cause significant error
 Vibrational temperatures:     71.51   113.00   147.49   162.68   197.63
          (Kelvin)            368.27   400.96   445.76   506.18   554.24
                              579.46   643.29   676.44   703.04   817.13
                              859.81   934.19   968.07  1110.31  1116.20
                             1164.81  1188.02  1227.97  1283.99  1328.74
                             1366.77  1377.66  1388.18  1527.17  1554.46
                             1653.62  1716.02  1788.19  1826.14  1841.08
                             1884.60  1890.86  1933.10  1940.14  1972.50
                             1994.53  2011.00  2018.80  2058.97  2103.62
                             2112.91  2139.75  2381.37  2416.86  4289.52
                             4384.79  4395.97  4412.51  4539.92  4566.80
                             4623.91  5469.21

 Zero-point correction=                           0.156995 (Hartree/Particle)
 Thermal correction to Energy=                    0.168064
 Thermal correction to Enthalpy=                  0.169008
 Thermal correction to Gibbs Free Energy=         0.119435
 Sum of electronic and zero-point Energies=           -752.020865
 Sum of electronic and thermal Energies=              -752.009796
 Sum of electronic and thermal Enthalpies=            -752.008851
 Sum of electronic and thermal Free Energies=         -752.058425

                     E (Thermal)             CV                S
                      KCal/Mol        Cal/Mol-Kelvin    Cal/Mol-Kelvin
 Total                  105.462             41.696            104.337
 Electronic               0.000              0.000              0.000
 Translational            0.889              2.981             41.663
 Rotational               0.889              2.981             30.641
 Vibrational            103.684             35.734             32.032
 Vibration     1          0.595              1.978              4.829
 Vibration     2          0.600              1.964              3.927
 Vibration     3          0.605              1.947              3.406
 Vibration     4          0.607              1.939              3.216
 Vibration     5          0.614              1.916              2.840
 Vibration     6          0.666              1.753              1.689
 Vibration     7          0.679              1.713              1.542
 Vibration     8          0.699              1.655              1.363
 Vibration     9          0.728              1.572              1.158
 Vibration    10          0.754              1.502              1.019
 Vibration    11          0.768              1.464              0.953
 Vibration    12          0.806              1.367              0.805
 Vibration    13          0.827              1.316              0.737
 Vibration    14          0.845              1.275              0.687
 Vibration    15          0.924              1.101              0.508
 Vibration    16          0.956              1.037              0.454

 Optimization completed.
    -- Stationary point found.
 Normal termination of Gaussian 09 at Thu Aug 26 09:38:28 2021.

 -----------------------------------------------------------------
 #P Geom=AllCheck Guess=TCheck SCRF=Check CCSD(T,E4T,FrzG4)/GTBas1
 -----------------------------------------------------------------

 Structure from the checkpoint file:  "/public/home/users/caep010/.cache/gau_scr/Gau-148392.chk"
 ------
 LOLFEX
 ------
 Charge =  0 Multiplicity = 1

 SCF Done:  E(RHF) =  -747.920394512     A.U. after   15 cycles
 E2 =    -0.2114321577D+01 EUMP2 =    -0.75003471608892D+03
 CCSD(T)
 CCSD(T)= -0.75014275304D+03
 .0667249\CCSD=-750.0585733\CCSD(T)=-750.142753\RMSD=4.512e-09\PG=C01 [
 Normal termination of Gaussian 09 at Thu Aug 26 11:31:22 2021.

 ---------------------------------------------------------
 #P Geom=AllCheck Guess=TCheck SCRF=Check MP4=FrzG4/GTBas2
 ---------------------------------------------------------

 Structure from the checkpoint file:  "/public/home/users/caep010/.cache/gau_scr/Gau-148392.chk"
 ------
 LOLFEX
 ------
 Charge =  0 Multiplicity = 1

 SCF Done:  E(RHF) =  -747.941620940     A.U. after   13 cycles
 E2 =    -0.2146632225D+01 EUMP2 =    -0.75008825316512D+03
 Normal termination of Gaussian 09 at Thu Aug 26 12:11:56 2021.

 ---------------------------------------------------------
 #P Geom=AllCheck Guess=TCheck SCRF=Check MP4=FrzG4/GTBas3
 ---------------------------------------------------------

 Structure from the checkpoint file:  "/public/home/users/caep010/.cache/gau_scr/Gau-148392.chk"
 ------
 LOLFEX
 ------
 Charge =  0 Multiplicity = 1

 SCF Done:  E(RHF) =  -748.003563738     A.U. after   12 cycles
 E2 =    -0.2551662443D+01 EUMP2 =    -0.75055522618043D+03
 Normal termination of Gaussian 09 at Thu Aug 26 18:43:07 2021.

 -----------------------------------------------------------
 #P Geom=AllCheck Guess=TCheck SCRF=Check MP2=Full/GTLargeXP
 -----------------------------------------------------------

 Structure from the checkpoint file:  "/public/home/users/caep010/.cache/gau_scr/Gau-148392.chk"
 ------
 LOLFEX
 ------
 Charge =  0 Multiplicity = 1

 SCF Done:  E(RHF) =  -748.198648601     A.U. after   13 cycles
 E2 =    -0.3299808712D+01 EUMP2 =    -0.75149845731287D+03
 Normal termination of Gaussian 09 at Thu Aug 26 18:56:20 2021.
 SCF Done:  E(RHF) =  -748.258393979     A.U. after   10 cycles
 Normal termination of Gaussian 09 at Thu Aug 26 19:04:35 2021.

                         Standard orientation:
 ---------------------------------------------------------------------
 Center     Atomic      Atomic             Coordinates (Angstroms)
 Number     Number       Type             X           Y           Z
 ---------------------------------------------------------------------
      1          7           0       -1.214919    0.079225    0.759545
      2          7           0       -1.912333   -0.696550   -0.189022
      3          8           0       -1.700555   -1.897227   -0.177695
      4          8           0       -2.720742   -0.112479   -0.886881
      5          6           0       -1.156905    1.523536    0.536413
      6          1           0       -1.257723    2.022279    1.507406
      7          1           0       -2.000907    1.800496   -0.090648
      8          6           0       -0.063553   -0.531694    1.406127
      9          1           0       -0.067703   -0.219706    2.455066
     10          1           0       -0.137783   -1.611318    1.335029
     11          7           0        1.210899   -0.088570    0.843138
     12          7           0        1.761842   -0.883680   -0.174544
     13          8           0        1.497492   -2.068957   -0.151633
     14          8           0        2.523413   -0.329490   -0.961675
     15          6           0        1.340467    1.360388    0.687417
     16          1           0        2.303198    1.578058    0.228805
     17          1           0        1.338888    1.791447    1.695221
     18          6           0        0.168495    1.923311   -0.130142
     19          1           0        0.238858    3.022624   -0.139324
     20          8           0        0.137256    1.388758   -1.436811
     21          1           0        1.038814    1.245062   -1.746714
 ---------------------------------------------------------------------

 SCF Done:  E(RHF) =  -748.270741841     A.U. after    8 cycles

 The electronic state is 1-A.
 Alpha  occ. eigenvalues --  -20.61749 -20.61239 -20.60329 -20.60265 -20.58250
 Alpha  occ. eigenvalues --  -15.90135 -15.89152 -15.66688 -15.65846 -11.34594
 Alpha  occ. eigenvalues --  -11.32301 -11.30965 -11.30083  -1.64103  -1.63047
 Alpha  occ. eigenvalues --   -1.42610  -1.41585  -1.40004  -1.33912  -1.27713
 Alpha  occ. eigenvalues --   -1.09191  -1.03566  -1.01038  -0.90213  -0.87914
 Alpha  occ. eigenvalues --   -0.82517  -0.79796  -0.79509  -0.76976  -0.75461
 Alpha  occ. eigenvalues --   -0.74878  -0.74235  -0.71325  -0.67469  -0.66901
 Alpha  occ. eigenvalues --   -0.66012  -0.64682  -0.60320  -0.58560  -0.57299
 Alpha  occ. eigenvalues --   -0.55125  -0.54070  -0.52231  -0.50721  -0.49427
 Alpha  occ. eigenvalues --   -0.49361  -0.48044  -0.46694  -0.45150  -0.42726
 Alpha virt. eigenvalues --    0.01540   0.03025   0.03213   0.04500   0.05315
 Alpha virt. eigenvalues --    0.05409   0.06305   0.06917   0.07269   0.08173
 Alpha virt. eigenvalues --    0.08266   0.08817   0.09221   0.09622   0.10150

 Mulliken charges:
               1
     1  N   -0.019673
     2  N    0.567216
     3  O   -0.417194
     4  O   -0.419487
     5  C   -0.297379
     6  H    0.204143
     7  H    0.256516
     8  C   -0.329474
     9  H    0.240567
    10  H    0.293193
    11  N    0.019296
    12  N    0.549255
    13  O   -0.390005
    14  O   -0.452485
    15  C   -0.337348
    16  H    0.250566
    17  H    0.211786
    18  C    0.087312
    19  H    0.182437
    20  O   -0.609296
    21  H    0.410056
 Sum of Mulliken charges =  -0.00000

 Dipole moment (field-independent basis, Debye):
    X=              1.6426    Y=              5.4222    Z=              4.9760  Tot=              7.5405
 Quadrupole moment (field-independent basis, Debye-Ang):
   XX=            -85.4587   YY=            -75.5756   ZZ=            -73.3099
   XY=              2.0359   XZ=             -2.4006   YZ=              0.0105

 Normal termination of Gaussian 09 at Thu Aug 26 19:58:34 2021.
