 Gaussian 09, Revision E.01,
 Gaussian 09:  ES64L-G09RevE.01 30-Nov-2015

 ----------------
 #P G4 OPT=calcfc
 ----------------

 ------
 LOJKAX
 ------
 Symbolic Z-matrix:
 Charge =  0 Multiplicity = 1

 SCF Done:  E(RB3LYP) =  -568.194490822     A.U. after   16 cycles
 SCF Done:  E(RB3LYP) =  -568.294552538     A.U. after   14 cycles
 SCF Done:  E(RB3LYP) =  -568.338223543     A.U. after   16 cycles
 SCF Done:  E(RB3LYP) =  -568.339508798     A.U. after   15 cycles
 SCF Done:  E(RB3LYP) =  -568.340621304     A.U. after   14 cycles
 SCF Done:  E(RB3LYP) =  -568.341376741     A.U. after   13 cycles
 SCF Done:  E(RB3LYP) =  -568.341544840     A.U. after   12 cycles
 SCF Done:  E(RB3LYP) =  -568.341591360     A.U. after   13 cycles
 SCF Done:  E(RB3LYP) =  -568.341596516     A.U. after   10 cycles
 SCF Done:  E(RB3LYP) =  -568.341598696     A.U. after   11 cycles
 Optimization completed.
    -- Stationary point found.
 Normal termination of Gaussian 09 at Thu Aug 26 11:11:28 2021.

 ----------------------------------------------------------
 #P Geom=AllCheck Guess=TCheck SCRF=Check B3LYP/GTBas3 Freq
 ----------------------------------------------------------

 Structure from the checkpoint file:  "/public/home/users/caep010/.cache/gau_scr/Gau-224784.chk"
 ------
 LOJKAX
 ------
 Charge =  0 Multiplicity = 1

 SCF Done:  E(RB3LYP) =  -568.341598696     A.U. after    1 cycles

  Exact polarizability: 141.411  -6.984 119.199  -1.018   0.887  48.981
 Approx polarizability: 238.323 -24.899 214.863  -4.717   8.760  83.683

                      1                      2                      3
                      A                      A                      A
 Frequencies --     44.1790                84.1878               147.5514
 Red. masses --     10.7336                 5.1018                 9.7057
 Frc consts  --      0.0123                 0.0213                 0.1245
 IR Inten    --      0.5843                 6.1515                 7.6474

                      4                      5                      6
                      A                      A                      A
 Frequencies --    174.0060               205.2500               235.2243
 Red. masses --      5.0923                 1.1092                 3.5660
 Frc consts  --      0.0908                 0.0275                 0.1162
 IR Inten    --      0.2618                 0.7275                 0.1303

                      7                      8                      9
                      A                      A                      A
 Frequencies --    271.2815               364.9578               377.3926
 Red. masses --      6.3018                 9.1276                 3.6066
 Frc consts  --      0.2732                 0.7163                 0.3026
 IR Inten    --      1.4848                 1.5202                 1.1581

                     10                     11                     12
                      A                      A                      A
 Frequencies --    411.4769               456.8590               491.8074
 Red. masses --      5.7426                 7.5373                 4.9806
 Frc consts  --      0.5729                 0.9269                 0.7098
 IR Inten    --      1.3439                 1.5403                 1.7895

                     13                     14                     15
                      A                      A                      A
 Frequencies --    516.8399               584.4085               627.6167
 Red. masses --      4.7029                 6.1464                 6.0266
 Frc consts  --      0.7402                 1.2368                 1.3987
 IR Inten    --      0.8806                 3.8415                 3.9681

                     16                     17                     18
                      A                      A                      A
 Frequencies --    631.2244               727.7555               765.9176
 Red. masses --      7.1782                 2.7053                 3.7780
 Frc consts  --      1.6851                 0.8442                 1.3058
 IR Inten    --      0.2318                 5.9180                21.2853

                     19                     20                     21
                      A                      A                      A
 Frequencies --    785.0205               823.6430               847.2041
 Red. masses --      5.3510                 5.5773                 1.9920
 Frc consts  --      1.9429                 2.2292                 0.8424
 IR Inten    --     23.5823                 6.3116                10.9466

                     22                     23                     24
                      A                      A                      A
 Frequencies --    902.8047               960.7816               989.2679
 Red. masses --      4.9214                 1.3943                 1.3206
 Frc consts  --      2.3633                 0.7583                 0.7615
 IR Inten    --     24.1809                 0.4830                 0.9745

                     25                     26                     27
                      A                      A                      A
 Frequencies --   1049.8806              1058.1876              1104.2740
 Red. masses --      1.7084                 1.5738                 2.1365
 Frc consts  --      1.1095                 1.0383                 1.5350
 IR Inten    --      1.3686                 2.1113                 5.9209

                     28                     29                     30
                      A                      A                      A
 Frequencies --   1179.1750              1199.8930              1223.2292
 Red. masses --      1.9522                 1.9501                 2.6300
 Frc consts  --      1.5993                 1.6542                 2.3186
 IR Inten    --      1.4141                 3.2788                 9.6352

                     31                     32                     33
                      A                      A                      A
 Frequencies --   1258.3575              1326.2170              1393.2576
 Red. masses --      1.9770                 7.6808                12.9429
 Frc consts  --      1.8445                 7.9595                14.8028
 IR Inten    --      2.9074                11.9104               221.2813

                     34                     35                     36
                      A                      A                      A
 Frequencies --   1419.4563              1461.8428              1472.0169
 Red. masses --      1.1907                 1.5999                 2.2091
 Frc consts  --      1.4135                 2.0145                 2.8203
 IR Inten    --      4.4776                 8.7435                15.5454

                     37                     38                     39
                      A                      A                      A
 Frequencies --   1482.4174              1498.5720              1604.0185
 Red. masses --      1.1241                 1.6554                 5.9390
 Frc consts  --      1.4555                 2.1903                 9.0029
 IR Inten    --      7.6683                13.1409                 5.7994

                     40                     41                     42
                      A                      A                      A
 Frequencies --   1616.6822              1656.8143              2343.5153
 Red. masses --      7.8626                 9.4080                12.6823
 Frc consts  --     12.1078                15.2158                41.0377
 IR Inten    --     96.3807               130.8572                16.3741

                     43                     44                     45
                      A                      A                      A
 Frequencies --   3063.4252              3126.5604              3150.2107
 Red. masses --      1.0359                 1.0984                 1.1035
 Frc consts  --      5.7279                 6.3263                 6.4524
 IR Inten    --      2.3202                 2.7583                 5.7158

                     46                     47                     48
                      A                      A                      A
 Frequencies --   3198.0362              3212.3823              3235.3821
 Red. masses --      1.0873                 1.0949                 1.0928
 Frc consts  --      6.5521                 6.6571                 6.7397
 IR Inten    --      1.4801                 2.5653                 3.3682

 - Thermochemistry -
 -------------------
 Temperature   298.150 Kelvin.  Pressure   1.00000 Atm.
 Atom     1 has atomic number  8 and mass  15.99491

 Molecular mass:   162.04293 amu.
 Principal axes and moments of inertia in atomic units:
                           1         2         3
     Eigenvalues --  1019.228972505.172083474.93281
           X            1.00000   0.00025  -0.00005
           Y           -0.00026   0.99998  -0.00555
           Z            0.00005   0.00555   0.99998
 This molecule is an asymmetric top.
 Rotational symmetry number  1.
 Warning -- assumption of classical behavior for rotation
           may cause significant error
 Rotational temperatures (Kelvin)      0.08498     0.03457     0.02493
 Rotational constants (GHZ):           1.77069     0.72041     0.51936
 Zero-point vibrational energy     339503.0 (Joules/Mol)
                                   81.14315 (Kcal/Mol)
 Warning -- explicit consideration of  14 degrees of freedom as
           vibrations may cause significant error
 Vibrational temperatures:     63.56   121.13   212.29   250.36   295.31
          (Kelvin)            338.43   390.31   525.09   542.98   592.02
                              657.32   707.60   743.62   840.83   903.00
                              908.19  1047.08  1101.98  1129.47  1185.04
                             1218.94  1298.93  1382.35  1423.33  1510.54
                             1522.49  1588.80  1696.57  1726.38  1759.95
                             1810.49  1908.13  2004.58  2042.28  2103.26
                             2117.90  2132.87  2156.11  2307.82  2326.04
                             2383.78  3371.79  4407.58  4498.42  4532.44
                             4601.26  4621.90  4654.99

 Zero-point correction=                           0.129310 (Hartree/Particle)
 Thermal correction to Energy=                    0.139405
 Thermal correction to Enthalpy=                  0.140349
 Thermal correction to Gibbs Free Energy=         0.093053
 Sum of electronic and zero-point Energies=           -568.212289
 Sum of electronic and thermal Energies=              -568.202194
 Sum of electronic and thermal Enthalpies=            -568.201250
 Sum of electronic and thermal Free Energies=         -568.248546

                     E (Thermal)             CV                S
                      KCal/Mol        Cal/Mol-Kelvin    Cal/Mol-Kelvin
 Total                   87.478             37.542             99.543
 Electronic               0.000              0.000              0.000
 Translational            0.889              2.981             41.157
 Rotational               0.889              2.981             30.563
 Vibrational             85.700             31.580             27.823
 Vibration     1          0.595              1.980              5.062
 Vibration     2          0.601              1.960              3.791
 Vibration     3          0.617              1.905              2.704
 Vibration     4          0.627              1.874              2.392
 Vibration     5          0.640              1.832              2.086
 Vibration     6          0.655              1.787              1.839
 Vibration     7          0.675              1.726              1.588
 Vibration     8          0.738              1.544              1.101
 Vibration     9          0.748              1.518              1.050
 Vibration    10          0.775              1.445              0.921
 Vibration    11          0.815              1.346              0.775
 Vibration    12          0.848              1.268              0.679
 Vibration    13          0.872              1.213              0.617
 Vibration    14          0.941              1.065              0.477

 Normal termination of Gaussian 09 at Thu Aug 26 11:13:50 2021.

 -----------------------------------------------------------------
 #P Geom=AllCheck Guess=TCheck SCRF=Check CCSD(T,E4T,FrzG4)/GTBas1
 -----------------------------------------------------------------

 Structure from the checkpoint file:  "/public/home/users/caep010/.cache/gau_scr/Gau-224784.chk"
 ------
 LOJKAX
 ------
 Charge =  0 Multiplicity = 1

 SCF Done:  E(RHF) =  -564.931018654     A.U. after   16 cycles
 E2 =    -0.1713058979D+01 EUMP2 =    -0.56664407763336D+03
 CCSD(T)
 CCSD(T)= -0.56675090878D+03
 SD=-566.669598\CCSD(T)=-566.7509088\RMSD=7.452e-09\PG=C01 [X(C8H6N2O2)
 Normal termination of Gaussian 09 at Thu Aug 26 12:08:07 2021.

 ---------------------------------------------------------
 #P Geom=AllCheck Guess=TCheck SCRF=Check MP4=FrzG4/GTBas2
 ---------------------------------------------------------

 Structure from the checkpoint file:  "/public/home/users/caep010/.cache/gau_scr/Gau-224784.chk"
 ------
 LOJKAX
 ------
 Charge =  0 Multiplicity = 1

 SCF Done:  E(RHF) =  -564.945178321     A.U. after   16 cycles
 E2 =    -0.1732622148D+01 EUMP2 =    -0.56667780046849D+03
 Normal termination of Gaussian 09 at Thu Aug 26 12:25:53 2021.

 ---------------------------------------------------------
 #P Geom=AllCheck Guess=TCheck SCRF=Check MP4=FrzG4/GTBas3
 ---------------------------------------------------------

 Structure from the checkpoint file:  "/public/home/users/caep010/.cache/gau_scr/Gau-224784.chk"
 ------
 LOJKAX
 ------
 Charge =  0 Multiplicity = 1

 SCF Done:  E(RHF) =  -564.985143376     A.U. after   13 cycles
 E2 =    -0.2031409107D+01 EUMP2 =    -0.56701655248284D+03
 Normal termination of Gaussian 09 at Thu Aug 26 15:00:43 2021.

 -----------------------------------------------------------
 #P Geom=AllCheck Guess=TCheck SCRF=Check MP2=Full/GTLargeXP
 -----------------------------------------------------------

 Structure from the checkpoint file:  "/public/home/users/caep010/.cache/gau_scr/Gau-224784.chk"
 ------
 LOJKAX
 ------
 Charge =  0 Multiplicity = 1

 SCF Done:  E(RHF) =  -565.117111426     A.U. after   16 cycles
 E2 =    -0.2672588867D+01 EUMP2 =    -0.56778970029239D+03
 Normal termination of Gaussian 09 at Thu Aug 26 15:18:35 2021.
 SCF Done:  E(RHF) =  -565.161526995     A.U. after   10 cycles
 Normal termination of Gaussian 09 at Thu Aug 26 15:24:35 2021.

                         Standard orientation:
 ---------------------------------------------------------------------
 Center     Atomic      Atomic             Coordinates (Angstroms)
 Number     Number       Type             X           Y           Z
 ---------------------------------------------------------------------
      1          8           0       -3.145495    0.299328    0.385014
      2          7           0       -2.205041   -0.379940   -0.003794
      3          8           0       -2.296875   -1.533962   -0.399946
      4          6           0       -0.869277    0.256807   -0.011459
      5          6           0       -0.869515    1.648518   -0.053754
      6          1           0       -1.821452    2.162320   -0.058263
      7          6           0        0.332703    2.339452   -0.092000
      8          1           0        0.339918    3.421975   -0.138306
      9          6           0        1.522752    1.628117   -0.065521
     10          6           0        0.304756   -0.510947    0.020579
     11          6           0        0.345344   -2.014202    0.098505
     12          1           0       -0.358920   -2.395533    0.840197
     13          1           0        1.350690   -2.353811    0.350918
     14          1           0        0.053936   -2.458243   -0.856770
     15          1           0        2.476503    2.142574   -0.088656
     16          6           0        1.509103    0.228659   -0.001665
     17          6           0        2.772247   -0.446583    0.039236
     18          7           0        3.806414   -0.965936    0.070480
 ---------------------------------------------------------------------

 SCF Done:  E(RHF) =  -565.169783103     A.U. after    8 cycles

 The electronic state is 1-A.
 Alpha  occ. eigenvalues --  -20.61489 -20.61324 -15.86775 -15.58779 -11.33130
 Alpha  occ. eigenvalues --  -11.32156 -11.31136 -11.30116 -11.29884 -11.29253
 Alpha  occ. eigenvalues --  -11.28105 -11.25144  -1.62058  -1.41422  -1.24592
 Alpha  occ. eigenvalues --   -1.21927  -1.12008  -1.10469  -1.01094  -0.95827
 Alpha  occ. eigenvalues --   -0.90536  -0.85293  -0.79944  -0.74722  -0.73943
 Alpha  occ. eigenvalues --   -0.72537  -0.71049  -0.69580  -0.62909  -0.61346
 Alpha  occ. eigenvalues --   -0.59771  -0.57910  -0.56768  -0.55735  -0.55652
 Alpha  occ. eigenvalues --   -0.51569  -0.50410  -0.50051  -0.48240  -0.46767
 Alpha  occ. eigenvalues --   -0.39509  -0.37773
 Alpha virt. eigenvalues --    0.02130   0.02594   0.04008   0.04069   0.04418
 Alpha virt. eigenvalues --    0.05321   0.05421   0.05994   0.06372   0.06601
 Alpha virt. eigenvalues --    0.07473   0.07643   0.08256   0.08821   0.08975

 Mulliken charges:
               1
     1  O   -0.427985
     2  N    0.492589
     3  O   -0.412099
     4  C    0.125332
     5  C   -0.196536
     6  H    0.262976
     7  C   -0.148688
     8  H    0.230541
     9  C   -0.262906
    10  C    0.156134
    11  C   -0.704539
    12  H    0.211933
    13  H    0.226054
    14  H    0.209971
    15  H    0.238394
    16  C    0.338795
    17  C    0.081205
    18  N   -0.421173
 Sum of Mulliken charges =  -0.00000

 Dipole moment (field-independent basis, Debye):
    X=              0.1416    Y=              3.5423    Z=             -0.1549  Tot=              3.5485
 Quadrupole moment (field-independent basis, Debye-Ang):
   XX=            -97.2276   YY=            -61.4972   ZZ=            -70.1159
   XY=              3.9984   XZ=              0.1783   YZ=             -1.7551

 Normal termination of Gaussian 09 at Thu Aug 26 16:05:28 2021.
