 Gaussian 09, Revision E.01,
 Gaussian 09:  ES64L-G09RevE.01 30-Nov-2015

 ----------------
 #P G4 OPT=calcfc
 ----------------

 ------
 LUHPAF
 ------
 Symbolic Z-matrix:
 Charge =  0 Multiplicity = 1

 SCF Done:  E(RB3LYP) =  -507.061016595     A.U. after   16 cycles
 SCF Done:  E(RB3LYP) =  -507.150855514     A.U. after   13 cycles
 SCF Done:  E(RB3LYP) =  -507.181836049     A.U. after   15 cycles
 SCF Done:  E(RB3LYP) =  -507.184500907     A.U. after   13 cycles
 SCF Done:  E(RB3LYP) =  -507.184970491     A.U. after   14 cycles
 SCF Done:  E(RB3LYP) =  -507.185072479     A.U. after   12 cycles
 SCF Done:  E(RB3LYP) =  -507.185100926     A.U. after   10 cycles
 SCF Done:  E(RB3LYP) =  -507.185104716     A.U. after   10 cycles
 SCF Done:  E(RB3LYP) =  -507.185105055     A.U. after    8 cycles
 Optimization completed.
    -- Stationary point found.
 Normal termination of Gaussian 09 at Thu Aug 26 13:51:14 2021.

 ----------------------------------------------------------
 #P Geom=AllCheck Guess=TCheck SCRF=Check B3LYP/GTBas3 Freq
 ----------------------------------------------------------

 Structure from the checkpoint file:  "/public/home/users/caep010/.cache/gau_scr/Gau-76312.chk"
 ------
 LUHPAF
 ------
 Charge =  0 Multiplicity = 1

 SCF Done:  E(RB3LYP) =  -507.185105055     A.U. after    1 cycles

  Exact polarizability:  76.554  -2.934  71.517   0.682   0.957  39.566
 Approx polarizability: 108.680  -6.423 130.629   0.747   4.761  62.365

                      1                      2                      3
                      A                      A                      A
 Frequencies --     69.5892               113.7927               189.7359
 Red. masses --     12.8325                 4.5381                 3.7955
 Frc consts  --      0.0366                 0.0346                 0.0805
 IR Inten    --      0.6970                 0.2242                 5.6790

                      4                      5                      6
                      A                      A                      A
 Frequencies --    226.3885               241.0598               398.7369
 Red. masses --      2.9850                 5.4613                 7.8345
 Frc consts  --      0.0901                 0.1870                 0.7339
 IR Inten    --      0.6799                 2.7172                 1.3686

                      7                      8                      9
                      A                      A                      A
 Frequencies --    452.1158               505.0951               621.0212
 Red. masses --      6.0636                 1.3284                 5.5834
 Frc consts  --      0.7303                 0.1997                 1.2687
 IR Inten    --     16.7411               105.9705                31.1862

                     10                     11                     12
                      A                      A                      A
 Frequencies --    697.8774               712.9687               749.6076
 Red. masses --      2.9972                 5.7099                11.7562
 Frc consts  --      0.8601                 1.7101                 3.8921
 IR Inten    --     17.0845                18.3390                15.8756

                     13                     14                     15
                      A                      A                      A
 Frequencies --    786.8099               848.9347               898.1137
 Red. masses --     13.0319                 9.0067                 1.5313
 Frc consts  --      4.7533                 3.8244                 0.7277
 IR Inten    --     16.7394                24.0252                10.3457

                     16                     17                     18
                      A                      A                      A
 Frequencies --    968.1482              1077.4683              1099.2002
 Red. masses --      2.3917                 2.0463                 5.6044
 Frc consts  --      1.3208                 1.3997                 3.9897
 IR Inten    --      2.5589                29.7875               124.6884

                     19                     20                     21
                      A                      A                      A
 Frequencies --   1127.7091              1204.1772              1230.2284
 Red. masses --      1.6934                 3.0383                 1.2845
 Frc consts  --      1.2688                 2.5958                 1.1454
 IR Inten    --     10.9179                99.7517                26.2892

                     22                     23                     24
                      A                      A                      A
 Frequencies --   1234.4134              1255.4301              1319.7196
 Red. masses --      3.2834                 1.5464                 2.6775
 Frc consts  --      2.9478                 1.4361                 2.7475
 IR Inten    --    244.3081                10.9862               267.2204

                     25                     26                     27
                      A                      A                      A
 Frequencies --   1347.4880              1402.6307              1445.2177
 Red. masses --      1.7085                 2.1570                 1.7264
 Frc consts  --      1.8277                 2.5003                 2.1245
 IR Inten    --     44.8847                12.9219                19.4760

                     28                     29                     30
                      A                      A                      A
 Frequencies --   1518.4887              1534.0250              1675.5577
 Red. masses --      1.1008                 1.0914                14.3071
 Frc consts  --      1.4955                 1.5132                23.6657
 IR Inten    --      8.4387                 2.7039               178.8737

                     31                     32                     33
                      A                      A                      A
 Frequencies --   1890.5286              3016.5961              3060.2128
 Red. masses --     11.4981                 1.0695                 1.0669
 Frc consts  --     24.2128                 5.7339                 5.8870
 IR Inten    --    477.7802                46.9081                10.5743

                     34                     35                     36
                      A                      A                      A
 Frequencies --   3097.3726              3140.3948              3650.5757
 Red. masses --      1.0952                 1.1003                 1.0778
 Frc consts  --      6.1904                 6.3936                 8.4628
 IR Inten    --     23.5634                 8.6958                54.1777

 - Thermochemistry -
 -------------------
 Temperature   298.150 Kelvin.  Pressure   1.00000 Atm.
 Atom     1 has atomic number  7 and mass  14.00307

 Molecular mass:   131.03309 amu.
 Principal axes and moments of inertia in atomic units:
                           1         2         3
     Eigenvalues --   637.388421108.127431702.55136
           X            0.99907  -0.04293   0.00303
           Y            0.04294   0.99908  -0.00207
           Z           -0.00294   0.00220   0.99999
 This molecule is an asymmetric top.
 Rotational symmetry number  1.
 Warning -- assumption of classical behavior for rotation
           may cause significant error
 Rotational temperatures (Kelvin)      0.13589     0.07816     0.05087
 Rotational constants (GHZ):           2.83146     1.62864     1.06002
 Zero-point vibrational energy     268007.9 (Joules/Mol)
                                   64.05544 (Kcal/Mol)
 Warning -- explicit consideration of   8 degrees of freedom as
           vibrations may cause significant error
 Vibrational temperatures:    100.12   163.72   272.99   325.72   346.83
          (Kelvin)            573.69   650.49   726.72   893.51  1004.09
                             1025.80  1078.52  1132.04  1221.43  1292.18
                             1392.95  1550.23  1581.50  1622.52  1732.54
                             1770.02  1776.04  1806.28  1898.78  1938.73
                             2018.07  2079.34  2184.76  2207.12  2410.75
                             2720.05  4340.20  4402.96  4456.42  4518.32
                             5252.36

 Zero-point correction=                           0.102079 (Hartree/Particle)
 Thermal correction to Energy=                    0.109691
 Thermal correction to Enthalpy=                  0.110635
 Thermal correction to Gibbs Free Energy=         0.069228
 Sum of electronic and zero-point Energies=           -507.083026
 Sum of electronic and thermal Energies=              -507.075414
 Sum of electronic and thermal Enthalpies=            -507.074470
 Sum of electronic and thermal Free Energies=         -507.115877

                     E (Thermal)             CV                S
                      KCal/Mol        Cal/Mol-Kelvin    Cal/Mol-Kelvin
 Total                   68.832             27.130             87.149
 Electronic               0.000              0.000              0.000
 Translational            0.889              2.981             40.524
 Rotational               0.889              2.981             28.577
 Vibrational             67.055             21.168             18.048
 Vibration     1          0.598              1.969              4.165
 Vibration     2          0.607              1.938              3.203
 Vibration     3          0.633              1.854              2.230
 Vibration     4          0.650              1.801              1.907
 Vibration     5          0.658              1.777              1.795
 Vibration     6          0.765              1.473              0.967
 Vibration     7          0.811              1.356              0.789
 Vibration     8          0.860              1.239              0.646

 Optimization completed.
    -- Stationary point found.
 Normal termination of Gaussian 09 at Thu Aug 26 13:52:16 2021.

 -----------------------------------------------------------------
 #P Geom=AllCheck Guess=TCheck SCRF=Check CCSD(T,E4T,FrzG4)/GTBas1
 -----------------------------------------------------------------

 Structure from the checkpoint file:  "/public/home/users/caep010/.cache/gau_scr/Gau-76312.chk"
 ------
 LUHPAF
 ------
 Charge =  0 Multiplicity = 1

 SCF Done:  E(RHF) =  -504.312273804     A.U. after   15 cycles
 E2 =    -0.1421999270D+01 EUMP2 =    -0.50573427307466D+03
 CCSD(T)
 CCSD(T)= -0.50580880789D+03
 =-505.7525617\CCSD(T)=-505.8088079\RMSD=8.797e-09\PG=C01 [X(C3H5N3O3)]
 Normal termination of Gaussian 09 at Thu Aug 26 14:03:33 2021.

 ---------------------------------------------------------
 #P Geom=AllCheck Guess=TCheck SCRF=Check MP4=FrzG4/GTBas2
 ---------------------------------------------------------

 Structure from the checkpoint file:  "/public/home/users/caep010/.cache/gau_scr/Gau-76312.chk"
 ------
 LUHPAF
 ------
 Charge =  0 Multiplicity = 1

 SCF Done:  E(RHF) =  -504.325620100     A.U. after   13 cycles
 E2 =    -0.1441443206D+01 EUMP2 =    -0.50576706330611D+03
 Normal termination of Gaussian 09 at Thu Aug 26 14:07:19 2021.

 ---------------------------------------------------------
 #P Geom=AllCheck Guess=TCheck SCRF=Check MP4=FrzG4/GTBas3
 ---------------------------------------------------------

 Structure from the checkpoint file:  "/public/home/users/caep010/.cache/gau_scr/Gau-76312.chk"
 ------
 LUHPAF
 ------
 Charge =  0 Multiplicity = 1

 SCF Done:  E(RHF) =  -504.367162720     A.U. after   12 cycles
 E2 =    -0.1710240037D+01 EUMP2 =    -0.50607740275743D+03
 Normal termination of Gaussian 09 at Thu Aug 26 14:33:43 2021.

 -----------------------------------------------------------
 #P Geom=AllCheck Guess=TCheck SCRF=Check MP2=Full/GTLargeXP
 -----------------------------------------------------------

 Structure from the checkpoint file:  "/public/home/users/caep010/.cache/gau_scr/Gau-76312.chk"
 ------
 LUHPAF
 ------
 Charge =  0 Multiplicity = 1

 SCF Done:  E(RHF) =  -504.498000346     A.U. after   13 cycles
 E2 =    -0.2221304282D+01 EUMP2 =    -0.50671930462801D+03
 Normal termination of Gaussian 09 at Thu Aug 26 14:40:34 2021.
 SCF Done:  E(RHF) =  -504.538311413     A.U. after    9 cycles
 Normal termination of Gaussian 09 at Thu Aug 26 14:45:54 2021.

                         Standard orientation:
 ---------------------------------------------------------------------
 Center     Atomic      Atomic             Coordinates (Angstroms)
 Number     Number       Type             X           Y           Z
 ---------------------------------------------------------------------
      1          7           0       -0.147287   -0.184922    0.227693
      2          6           0        0.709182    0.945672   -0.024217
      3          7           0        1.953324    0.386833   -0.207397
      4          6           0        2.011002   -1.021732    0.148065
      5          1           0        2.675342   -1.580574   -0.515118
      6          1           0        2.343081   -1.172089    1.183925
      7          8           0        0.406962    2.103593   -0.068649
      8          7           0       -1.532622   -0.139583    0.027021
      9          6           0        0.541581   -1.448290   -0.026408
     10          1           0        0.230914   -2.215199    0.682049
     11          1           0        0.333570   -1.803296   -1.040902
     12          1           0        2.748282    0.999070   -0.117206
     13          8           0       -2.048140   -1.223423   -0.214671
     14          8           0       -2.085782    0.930065    0.144744
 ---------------------------------------------------------------------

 SCF Done:  E(RHF) =  -504.546413751     A.U. after    8 cycles

 The electronic state is 1-A.
 Alpha  occ. eigenvalues --  -20.61163 -20.60779 -20.54988 -15.89904 -15.67228
 Alpha  occ. eigenvalues --  -15.61536 -11.41708 -11.31304 -11.31242  -1.63845
 Alpha  occ. eigenvalues --   -1.43579  -1.42269  -1.33275  -1.24725  -1.05965
 Alpha  occ. eigenvalues --   -0.98159  -0.89789  -0.82776  -0.77379  -0.76091
 Alpha  occ. eigenvalues --   -0.74477  -0.72119  -0.70350  -0.65836  -0.63967
 Alpha  occ. eigenvalues --   -0.60439  -0.59372  -0.57908  -0.52997  -0.50352
 Alpha  occ. eigenvalues --   -0.47344  -0.46587  -0.45266  -0.43002
 Alpha virt. eigenvalues --    0.02116   0.03328   0.03803   0.04830   0.06370
 Alpha virt. eigenvalues --    0.06708   0.06858   0.07150   0.07536   0.08880
 Alpha virt. eigenvalues --    0.09527   0.10503   0.11598   0.12436   0.12720

 Mulliken charges:
               1
     1  N   -0.021418
     2  C    0.540916
     3  N   -0.438970
     4  C   -0.205272
     5  H    0.196537
     6  H    0.174587
     7  O   -0.554151
     8  N    0.554710
     9  C   -0.230221
    10  H    0.212089
    11  H    0.200010
    12  H    0.360964
    13  O   -0.436448
    14  O   -0.353332
 Sum of Mulliken charges =  -0.00000

 Dipole moment (field-independent basis, Debye):
    X=              5.9515    Y=             -3.9774    Z=              0.4732  Tot=              7.1738
 Quadrupole moment (field-independent basis, Debye-Ang):
   XX=            -50.2884   YY=            -57.8827   ZZ=            -50.0131
   XY=             -1.9154   XZ=              0.5492   YZ=             -0.3400

 Normal termination of Gaussian 09 at Thu Aug 26 15:03:16 2021.
