 Gaussian 09, Revision E.01,
 Gaussian 09:  ES64L-G09RevE.01 30-Nov-2015

 ----------------
 #P G4 OPT=calcfc
 ----------------

 ------
 LOJBAN
 ------
 Symbolic Z-matrix:
 Charge =  0 Multiplicity = 1

 SCF Done:  E(RB3LYP) =  -609.887782959     A.U. after   15 cycles
 SCF Done:  E(RB3LYP) =  -610.007905367     A.U. after   13 cycles
 SCF Done:  E(RB3LYP) =  -610.092912118     A.U. after   14 cycles
 SCF Done:  E(RB3LYP) =  -610.093890905     A.U. after   13 cycles
 SCF Done:  E(RB3LYP) =  -610.093998378     A.U. after   11 cycles
 SCF Done:  E(RB3LYP) =  -610.094017058     A.U. after   12 cycles
 SCF Done:  E(RB3LYP) =  -610.094032861     A.U. after   12 cycles
 SCF Done:  E(RB3LYP) =  -610.094055804     A.U. after   10 cycles
 SCF Done:  E(RB3LYP) =  -610.094076551     A.U. after   10 cycles
 SCF Done:  E(RB3LYP) =  -610.094080183     A.U. after   10 cycles
 SCF Done:  E(RB3LYP) =  -610.094079332     A.U. after    9 cycles
 SCF Done:  E(RB3LYP) =  -610.094079844     A.U. after    7 cycles
 SCF Done:  E(RB3LYP) =  -610.094080303     A.U. after    8 cycles
 Optimization completed.
    -- Stationary point found.
 Normal termination of Gaussian 09 at Wed Aug 25 18:23:50 2021.

 ----------------------------------------------------------
 #P Geom=AllCheck Guess=TCheck SCRF=Check B3LYP/GTBas3 Freq
 ----------------------------------------------------------

 Structure from the checkpoint file:  "/public/home/users/caep010/.cache/gau_scr/Gau-212154.chk"
 ------
 LOJBAN
 ------
 Charge =  0 Multiplicity = 1

 SCF Done:  E(RB3LYP) =  -610.094080303     A.U. after    1 cycles

  Exact polarizability: 205.340   0.174 117.385   5.974  -2.564  67.021
 Approx polarizability: 298.089  -1.973 221.108  12.207  -8.710 104.342

                      1                      2                      3
                      A                      A                      A
 Frequencies --     32.7522                53.0722                80.9833
 Red. masses --      4.1358                 3.3712                 5.9423
 Frc consts  --      0.0026                 0.0056                 0.0230
 IR Inten    --      0.5948                 1.3534                 0.7719

                      4                      5                      6
                      A                      A                      A
 Frequencies --    102.7648               116.6463               166.7688
 Red. masses --      4.4766                 2.9007                 2.4043
 Frc consts  --      0.0279                 0.0233                 0.0394
 IR Inten    --      0.5228                 0.5527                 5.8793

                      7                      8                      9
                      A                      A                      A
 Frequencies --    198.0507               249.9859               273.7078
 Red. masses --      1.8204                 5.5387                 1.8793
 Frc consts  --      0.0421                 0.2039                 0.0830
 IR Inten    --      0.4256                 2.5762                 6.8767

                     10                     11                     12
                      A                      A                      A
 Frequencies --    299.0163               358.9442               369.3618
 Red. masses --      5.3551                 2.7477                 1.4370
 Frc consts  --      0.2821                 0.2086                 0.1155
 IR Inten    --      1.1372                25.1700                96.7769

                     13                     14                     15
                      A                      A                      A
 Frequencies --    430.3424               448.6383               490.3769
 Red. masses --      3.2214                 2.3833                 4.2758
 Frc consts  --      0.3515                 0.2826                 0.6058
 IR Inten    --      2.7769                10.0510                 6.1817

                     16                     17                     18
                      A                      A                      A
 Frequencies --    513.7132               543.2713               641.5153
 Red. masses --      2.7149                 6.2479                 6.8308
 Frc consts  --      0.4221                 1.0865                 1.6563
 IR Inten    --      5.2354                 3.6602                 0.4554

                     19                     20                     21
                      A                      A                      A
 Frequencies --    675.1648               715.0373               773.9276
 Red. masses --      5.5346                 3.3721                 1.3230
 Frc consts  --      1.4865                 1.0158                 0.4669
 IR Inten    --      9.5780                 9.0872                 1.0264

                     22                     23                     24
                      A                      A                      A
 Frequencies --    784.3948               822.5709               841.4800
 Red. masses --      5.5565                 1.2640                 3.9841
 Frc consts  --      2.0143                 0.5039                 1.6621
 IR Inten    --     23.0315                 0.2558                 6.6034

                     25                     26                     27
                      A                      A                      A
 Frequencies --    856.8894               876.7256               882.4770
 Red. masses --      1.9678                 5.5197                 2.8076
 Frc consts  --      0.8513                 2.4997                 1.2882
 IR Inten    --     27.1022                14.8118                 5.4965

                     28                     29                     30
                      A                      A                      A
 Frequencies --    927.4743               960.4992               991.1570
 Red. masses --      1.2185                 1.2939                 1.3570
 Frc consts  --      0.6176                 0.7033                 0.7855
 IR Inten    --      0.8120                 0.0235                 1.4802

                     31                     32                     33
                      A                      A                      A
 Frequencies --   1013.1693              1016.3647              1090.2825
 Red. masses --      2.3267                 2.0771                 2.5668
 Frc consts  --      1.4072                 1.2642                 1.7977
 IR Inten    --     12.5512                 2.0269                 7.0892

                     34                     35                     36
                      A                      A                      A
 Frequencies --   1127.5255              1131.3419              1146.5720
 Red. masses --      1.4367                 2.1269                 1.8145
 Frc consts  --      1.0761                 1.6040                 1.4055
 IR Inten    --     14.3700               145.6864                 3.9990

                     37                     38                     39
                      A                      A                      A
 Frequencies --   1177.8012              1210.1407              1266.5101
 Red. masses --      2.0372                 1.3999                 1.2530
 Frc consts  --      1.6651                 1.2079                 1.1841
 IR Inten    --     21.2933                16.1255                 0.9574

                     40                     41                     42
                      A                      A                      A
 Frequencies --   1287.3305              1319.1205              1330.6045
 Red. masses --      1.4186                 1.3082                 1.5684
 Frc consts  --      1.3851                 1.3412                 1.6361
 IR Inten    --     50.8561                18.5220                74.7792

                     43                     44                     45
                      A                      A                      A
 Frequencies --   1370.4877              1380.6279              1389.8279
 Red. masses --      3.5591                 1.8047                 5.3228
 Frc consts  --      3.9385                 2.0268                 6.0577
 IR Inten    --    536.4349               115.0505               152.6366

                     46                     47                     48
                      A                      A                      A
 Frequencies --   1398.1762              1421.4178              1449.1907
 Red. masses --      1.4880                 1.2740                 2.8063
 Frc consts  --      1.7139                 1.5165                 3.4724
 IR Inten    --      0.6682                 3.9005                15.0400

                     49                     50                     51
                      A                      A                      A
 Frequencies --   1483.0746              1496.9937              1506.2585
 Red. masses --      1.1164                 1.0517                 1.0670
 Frc consts  --      1.4467                 1.3886                 1.4263
 IR Inten    --      4.5639                 4.4224                11.4344

                     52                     53                     54
                      A                      A                      A
 Frequencies --   1514.7635              1523.9760              1551.4803
 Red. masses --      1.7251                 1.1281                 2.9746
 Frc consts  --      2.3322                 1.5436                 4.2187
 IR Inten    --      5.8840                56.6872               161.3965

                     55                     56                     57
                      A                      A                      A
 Frequencies --   1593.6227              1642.0289              1646.9756
 Red. masses --      6.2122                 8.1872                 6.1777
 Frc consts  --      9.2954                13.0061                 9.8731
 IR Inten    --     82.3196               135.8658               315.5788

                     58                     59                     60
                      A                      A                      A
 Frequencies --   2977.0031              3014.5424              3034.8001
 Red. masses --      1.0678                 1.0716                 1.0860
 Frc consts  --      5.5755                 5.7374                 5.8928
 IR Inten    --     46.0384                11.6970                31.1494

                     61                     62                     63
                      A                      A                      A
 Frequencies --   3039.7244              3069.4007              3107.3559
 Red. masses --      1.0382                 1.0948                 1.1016
 Frc consts  --      5.6517                 6.0772                 6.2668
 IR Inten    --     29.6945                15.5119                33.9713

                     64                     65                     66
                      A                      A                      A
 Frequencies --   3113.7539              3169.7017              3210.7581
 Red. masses --      1.1015                 1.0891                 1.0875
 Frc consts  --      6.2923                 6.4471                 6.6052
 IR Inten    --     41.6774                11.8921                 7.6159

                     67                     68                     69
                      A                      A                      A
 Frequencies --   3232.6645              3233.1940              3621.9617
 Red. masses --      1.0926                 1.0922                 1.0759
 Frc consts  --      6.7275                 6.7270                 8.3157
 IR Inten    --      1.0159                 2.2441                39.3963

 - Thermochemistry -
 -------------------
 Temperature   298.150 Kelvin.  Pressure   1.00000 Atm.
 Atom     1 has atomic number  7 and mass  14.00307

 Molecular mass:   180.08988 amu.
 Principal axes and moments of inertia in atomic units:
                           1         2         3
     Eigenvalues --   623.470036013.776326443.04376
           X            0.99999   0.00135  -0.00391
           Y           -0.00133   0.99998   0.00617
           Z            0.00392  -0.00617   0.99997
 This molecule is an asymmetric top.
 Rotational symmetry number  1.
 Warning -- assumption of classical behavior for rotation
           may cause significant error
 Rotational temperatures (Kelvin)      0.13892     0.01440     0.01344
 Rotational constants (GHZ):           2.89467     0.30010     0.28011
 Zero-point vibrational energy     537052.9 (Joules/Mol)
                                  128.35873 (Kcal/Mol)
 Warning -- explicit consideration of  17 degrees of freedom as
           vibrations may cause significant error
 Vibrational temperatures:     47.12    76.36   116.52   147.86   167.83
          (Kelvin)            239.94   284.95   359.67   393.80   430.22
                              516.44   531.43   619.17   645.49   705.54
                              739.12   781.65   923.00   971.41  1028.78
                             1113.51  1128.57  1183.49  1210.70  1232.87
                             1261.41  1269.69  1334.43  1381.94  1426.05
                             1457.72  1462.32  1568.67  1622.26  1627.75
                             1649.66  1694.59  1741.12  1822.22  1852.18
                             1897.92  1914.44  1971.82  1986.41  1999.65
                             2011.66  2045.10  2085.06  2133.81  2153.84
                             2167.17  2179.40  2192.66  2232.23  2292.86
                             2362.51  2369.63  4283.24  4337.25  4366.39
                             4373.48  4416.18  4470.79  4479.99  4560.49
                             4619.56  4651.08  4651.84  5211.19

 Zero-point correction=                           0.204553 (Hartree/Particle)
 Thermal correction to Energy=                    0.217015
 Thermal correction to Enthalpy=                  0.217959
 Thermal correction to Gibbs Free Energy=         0.164599
 Sum of electronic and zero-point Energies=           -609.889528
 Sum of electronic and thermal Energies=              -609.877065
 Sum of electronic and thermal Enthalpies=            -609.876121
 Sum of electronic and thermal Free Energies=         -609.929481

                     E (Thermal)             CV                S
                      KCal/Mol        Cal/Mol-Kelvin    Cal/Mol-Kelvin
 Total                  136.179             46.228            112.307
 Electronic               0.000              0.000              0.000
 Translational            0.889              2.981             41.472
 Rotational               0.889              2.981             31.558
 Vibrational            134.402             40.267             39.277
 Vibration     1          0.594              1.983              5.655
 Vibration     2          0.596              1.976              4.700
 Vibration     3          0.600              1.962              3.867
 Vibration     4          0.605              1.947              3.401
 Vibration     5          0.608              1.936              3.155
 Vibration     6          0.624              1.883              2.472
 Vibration     7          0.637              1.843              2.151
 Vibration     8          0.663              1.763              1.731
 Vibration     9          0.676              1.722              1.573
 Vibration    10          0.692              1.676              1.422
 Vibration    11          0.734              1.557              1.127
 Vibration    12          0.742              1.535              1.082
 Vibration    13          0.792              1.404              0.858
 Vibration    14          0.808              1.364              0.800
 Vibration    15          0.846              1.271              0.683
 Vibration    16          0.869              1.220              0.625
 Vibration    17          0.898              1.154              0.558

 Optimization completed.
    -- Stationary point found.
 Normal termination of Gaussian 09 at Wed Aug 25 18:27:08 2021.

 -----------------------------------------------------------------
 #P Geom=AllCheck Guess=TCheck SCRF=Check CCSD(T,E4T,FrzG4)/GTBas1
 -----------------------------------------------------------------

 Structure from the checkpoint file:  "/public/home/users/caep010/.cache/gau_scr/Gau-212154.chk"
 ------
 LOJBAN
 ------
 Charge =  0 Multiplicity = 1

 SCF Done:  E(RHF) =  -606.301609612     A.U. after   14 cycles
 E2 =    -0.1853205396D+01 EUMP2 =    -0.60815481500789D+03
 CCSD(T)
 CCSD(T)= -0.60829482132D+03
 SD=-608.214904\CCSD(T)=-608.2948213\RMSD=7.938e-09\PG=C01 [X(C9H12N2O2
 Normal termination of Gaussian 09 at Wed Aug 25 20:08:03 2021.

 ---------------------------------------------------------
 #P Geom=AllCheck Guess=TCheck SCRF=Check MP4=FrzG4/GTBas2
 ---------------------------------------------------------

 Structure from the checkpoint file:  "/public/home/users/caep010/.cache/gau_scr/Gau-212154.chk"
 ------
 LOJBAN
 ------
 Charge =  0 Multiplicity = 1

 SCF Done:  E(RHF) =  -606.317106381     A.U. after   14 cycles
 E2 =    -0.1876228869D+01 EUMP2 =    -0.60819333525055D+03
 Normal termination of Gaussian 09 at Wed Aug 25 20:56:29 2021.

 ---------------------------------------------------------
 #P Geom=AllCheck Guess=TCheck SCRF=Check MP4=FrzG4/GTBas3
 ---------------------------------------------------------

 Structure from the checkpoint file:  "/public/home/users/caep010/.cache/gau_scr/Gau-212154.chk"
 ------
 LOJBAN
 ------
 Charge =  0 Multiplicity = 1

 SCF Done:  E(RHF) =  -606.367061035     A.U. after   12 cycles
 E2 =    -0.2235595078D+01 EUMP2 =    -0.60860265611224D+03
 Normal termination of Gaussian 09 at Thu Aug 26 02:57:43 2021.

 -----------------------------------------------------------
 #P Geom=AllCheck Guess=TCheck SCRF=Check MP2=Full/GTLargeXP
 -----------------------------------------------------------

 Structure from the checkpoint file:  "/public/home/users/caep010/.cache/gau_scr/Gau-212154.chk"
 ------
 LOJBAN
 ------
 Charge =  0 Multiplicity = 1

 SCF Done:  E(RHF) =  -606.508792135     A.U. after   13 cycles
 E2 =    -0.2937413336D+01 EUMP2 =    -0.60944620547156D+03
 Normal termination of Gaussian 09 at Thu Aug 26 03:09:44 2021.
 SCF Done:  E(RHF) =  -606.557367532     A.U. after   10 cycles
 Normal termination of Gaussian 09 at Thu Aug 26 03:17:39 2021.

                         Standard orientation:
 ---------------------------------------------------------------------
 Center     Atomic      Atomic             Coordinates (Angstroms)
 Number     Number       Type             X           Y           Z
 ---------------------------------------------------------------------
      1          7           0        3.553732   -0.093506    0.116296
      2          8           0        4.039991   -1.216199    0.229580
      3          8           0        4.211070    0.944155    0.081527
      4          6           0        2.106460    0.015382    0.017144
      5          6           0        1.325114   -1.135918    0.049045
      6          6           0       -0.052334   -1.037941   -0.048517
      7          1           0       -0.649820   -1.940168   -0.031734
      8          6           0       -0.673723    0.222736   -0.173012
      9          7           0       -2.034026    0.359002   -0.240882
     10          1           0       -2.374502    1.265131   -0.521570
     11          6           0        0.145505    1.374381   -0.207486
     12          1           0        1.812615   -2.096937    0.145158
     13          1           0       -0.318999    2.350970   -0.306026
     14          6           0        1.517425    1.274405   -0.113590
     15          1           0        2.150585    2.151024   -0.139292
     16          6           0       -2.964275   -0.745205   -0.398906
     17          1           0       -2.819533   -1.454550    0.426544
     18          1           0       -2.765535   -1.296541   -1.331438
     19          6           0       -4.412512   -0.250234   -0.388798
     20          6           0       -4.853871    0.354772    0.947498
     21          1           0       -4.232371    1.209589    1.230769
     22          1           0       -5.891641    0.696682    0.898218
     23          1           0       -4.781991   -0.383365    1.753383
     24          1           0       -4.545375    0.480821   -1.198402
     25          1           0       -5.056603   -1.099040   -0.642639
 ---------------------------------------------------------------------

 SCF Done:  E(RHF) =  -606.566806597     A.U. after    8 cycles

 The electronic state is 1-A.
 Alpha  occ. eigenvalues --  -20.58117 -20.58099 -15.83667 -15.59122 -11.31551
 Alpha  occ. eigenvalues --  -11.28242 -11.28196 -11.26929 -11.26837 -11.24792
 Alpha  occ. eigenvalues --  -11.24712 -11.24533 -11.23187  -1.58482  -1.37810
 Alpha  occ. eigenvalues --   -1.27520  -1.17800  -1.08966  -1.04967  -1.04432
 Alpha  occ. eigenvalues --   -0.96141  -0.91879  -0.86703  -0.82754  -0.81159
 Alpha  occ. eigenvalues --   -0.76750  -0.73610  -0.71356  -0.70280  -0.67774
 Alpha  occ. eigenvalues --   -0.65672  -0.64339  -0.62413  -0.61541  -0.60954
 Alpha  occ. eigenvalues --   -0.58077  -0.57633  -0.54850  -0.51876  -0.51238
 Alpha  occ. eigenvalues --   -0.50531  -0.50022  -0.48225  -0.47752  -0.45155
 Alpha  occ. eigenvalues --   -0.44121  -0.36721  -0.31552
 Alpha virt. eigenvalues --    0.02548   0.03090   0.03440   0.03711   0.05020
 Alpha virt. eigenvalues --    0.05261   0.05570   0.05958   0.06149   0.06499
 Alpha virt. eigenvalues --    0.07312   0.07919   0.08115   0.08660   0.08838

 Mulliken charges:
               1
     1  N    0.521788
     2  O   -0.455363
     3  O   -0.455032
     4  C    0.063531
     5  C   -0.187127
     6  C   -0.272348
     7  H    0.205922
     8  C    0.338254
     9  N   -0.470075
    10  H    0.325362
    11  C   -0.289714
    12  H    0.260780
    13  H    0.181552
    14  C   -0.160546
    15  H    0.259717
    16  C   -0.211277
    17  H    0.170062
    18  H    0.170256
    19  C   -0.315567
    20  C   -0.518999
    21  H    0.160681
    22  H    0.170983
    23  H    0.161838
    24  H    0.168702
    25  H    0.176621
 Sum of Mulliken charges =  -0.00000

 Dipole moment (field-independent basis, Debye):
    X=             -8.2000    Y=              0.4861    Z=             -0.8723  Tot=              8.2605
 Quadrupole moment (field-independent basis, Debye-Ang):
   XX=            -96.9313   YY=            -73.0656   ZZ=            -80.1161
   XY=              1.2224   XZ=              0.6058   YZ=             -1.0791

 Normal termination of Gaussian 09 at Thu Aug 26 04:09:03 2021.
