 Gaussian 09, Revision E.01,
 Gaussian 09:  ES64L-G09RevE.01 30-Nov-2015

 ----------------
 #P G4 OPT=calcfc
 ----------------

 ------
 LAHCEC
 ------
 Symbolic Z-matrix:
 Charge =  0 Multiplicity = 1

 SCF Done:  E(RB3LYP) =  -719.858275207     A.U. after   15 cycles
 SCF Done:  E(RB3LYP) =  -719.975267890     A.U. after   13 cycles
 SCF Done:  E(RB3LYP) =  -720.041415200     A.U. after   13 cycles
 SCF Done:  E(RB3LYP) =  -720.043057491     A.U. after   12 cycles
 SCF Done:  E(RB3LYP) =  -720.043128574     A.U. after   11 cycles
 SCF Done:  E(RB3LYP) =  -720.043146332     A.U. after   10 cycles
 SCF Done:  E(RB3LYP) =  -720.043150752     A.U. after    9 cycles
 SCF Done:  E(RB3LYP) =  -720.043152573     A.U. after    9 cycles
 SCF Done:  E(RB3LYP) =  -720.043153196     A.U. after    9 cycles
 SCF Done:  E(RB3LYP) =  -720.043153747     A.U. after    9 cycles
 SCF Done:  E(RB3LYP) =  -720.043154215     A.U. after    9 cycles
 SCF Done:  E(RB3LYP) =  -720.043154317     A.U. after    8 cycles
 SCF Done:  E(RB3LYP) =  -720.043154333     A.U. after    7 cycles
 Optimization completed.
    -- Stationary point found.
 Normal termination of Gaussian 09 at Fri Aug 27 06:05:47 2021.

 ----------------------------------------------------------
 #P Geom=AllCheck Guess=TCheck SCRF=Check B3LYP/GTBas3 Freq
 ----------------------------------------------------------

 Structure from the checkpoint file:  "/public/home/users/caep010/.cache/gau_scr/Gau-6097.chk"
 ------
 LAHCEC
 ------
 Charge =  0 Multiplicity = 1

 SCF Done:  E(RB3LYP) =  -720.043154333     A.U. after    1 cycles

  Exact polarizability: 200.799  -0.535 115.573   0.002  -0.000  53.106
 Approx polarizability: 291.895   2.685 227.354   0.007  -0.001  86.975

                      1                      2                      3
                      A                      A                      A
 Frequencies --     12.4293                56.5337                79.4411
 Red. masses --      8.2143                12.1671                 5.9601
 Frc consts  --      0.0007                 0.0229                 0.0222
 IR Inten    --      0.0134                 0.5028                 0.0001

                      4                      5                      6
                      A                      A                      A
 Frequencies --     83.9385               109.0676               120.8952
 Red. masses --      7.4387                 5.5292                 2.9245
 Frc consts  --      0.0309                 0.0388                 0.0252
 IR Inten    --      2.6385                 0.6369                11.1817

                      7                      8                      9
                      A                      A                      A
 Frequencies --    204.6471               236.6241               291.3126
 Red. masses --      9.4742                 8.5810                 6.7581
 Frc consts  --      0.2338                 0.2831                 0.3379
 IR Inten    --      5.1967                 0.6584                 0.1107

                     10                     11                     12
                      A                      A                      A
 Frequencies --    330.0775               425.6493               433.8500
 Red. masses --      6.4559                 2.5661                 8.2604
 Frc consts  --      0.4144                 0.2739                 0.9161
 IR Inten    --      1.2671                 8.4560                11.7238

                     13                     14                     15
                      A                      A                      A
 Frequencies --    445.4717               511.2987               512.9721
 Red. masses --      1.1976                 6.3923                 2.4878
 Frc consts  --      0.1400                 0.9846                 0.3857
 IR Inten    --     44.6764                 7.6649                 9.3296

                     16                     17                     18
                      A                      A                      A
 Frequencies --    529.4950               551.1450               616.3144
 Red. masses --      1.5496                 5.0801                 5.1464
 Frc consts  --      0.2560                 0.9092                 1.1517
 IR Inten    --     15.6287                10.5123                32.2737

                     19                     20                     21
                      A                      A                      A
 Frequencies --    645.6705               670.4301               687.1011
 Red. masses --      7.0339                 1.5186                 6.4163
 Frc consts  --      1.7277                 0.4022                 1.7847
 IR Inten    --      0.7652                96.4036                28.9174

                     22                     23                     24
                      A                      A                      A
 Frequencies --    715.0241               783.8353               822.1940
 Red. masses --      3.3587                 5.5008                 1.2597
 Frc consts  --      1.0117                 1.9912                 0.5017
 IR Inten    --     12.5572                23.3433                 0.0633

                     25                     26                     27
                      A                      A                      A
 Frequencies --    840.1842               856.2824               875.0577
 Red. masses --      6.0191                 1.9397                 7.0982
 Frc consts  --      2.5034                 0.8380                 3.2024
 IR Inten    --      3.0851                29.0929                36.1629

                     28                     29                     30
                      A                      A                      A
 Frequencies --    905.0498               959.8366               990.4339
 Red. masses --      3.1760                 1.2979                 1.3611
 Frc consts  --      1.5328                 0.7045                 0.7866
 IR Inten    --     12.9253                 0.0104                 1.2666

                     31                     32                     33
                      A                      A                      A
 Frequencies --   1014.2448              1029.8434              1127.3746
 Red. masses --      2.8216                 2.0650                 1.4919
 Frc consts  --      1.7101                 1.2903                 1.1172
 IR Inten    --      3.0271                 1.7937                 2.8572

                     34                     35                     36
                      A                      A                      A
 Frequencies --   1130.5183              1157.9181              1191.9524
 Red. masses --      2.1781                 3.0303                 2.4287
 Frc consts  --      1.6402                 2.3938                 2.0330
 IR Inten    --    158.6115               278.3991               129.0013

                     37                     38                     39
                      A                      A                      A
 Frequencies --   1210.0085              1234.6013              1282.7775
 Red. masses --      1.4144                 1.0897                 1.5809
 Frc consts  --      1.2201                 0.9786                 1.5327
 IR Inten    --      4.7207                 0.2797                 6.1537

                     40                     41                     42
                      A                      A                      A
 Frequencies --   1321.6474              1344.4952              1374.1569
 Red. masses --      1.3687                 1.8917                 7.5644
 Frc consts  --      1.4086                 2.0147                 8.4158
 IR Inten    --     17.5757                 0.8780               659.2289

                     43                     44                     45
                      A                      A                      A
 Frequencies --   1389.4977              1424.5654              1455.5919
 Red. masses --      5.4488                 2.6088                 3.0072
 Frc consts  --      6.1982                 3.1193                 3.7539
 IR Inten    --    182.3918               109.9768                 0.9430

                     46                     47                     48
                      A                      A                      A
 Frequencies --   1493.0155              1518.3882              1561.4482
 Red. masses --      1.1892                 1.7395                 3.4967
 Frc consts  --      1.5619                 2.3628                 5.0229
 IR Inten    --     27.2302                12.5845               239.9853

                     49                     50                     51
                      A                      A                      A
 Frequencies --   1592.7765              1641.7485              1648.2997
 Red. masses --      6.3616                 8.6692                 6.2856
 Frc consts  --      9.5088                13.7671                10.0616
 IR Inten    --     72.0883               150.1782               352.6142

                     52                     53                     54
                      A                      A                      A
 Frequencies --   1842.5333              2990.8182              3010.6235
 Red. masses --      9.8516                 1.0574                 1.1017
 Frc consts  --     19.7055                 5.5726                 5.8834
 IR Inten    --    240.0677                61.0546                12.6769

                     55                     56                     57
                      A                      A                      A
 Frequencies --   3177.6509              3201.1979              3233.2593
 Red. masses --      1.0894                 1.0881                 1.0919
 Frc consts  --      6.4808                 6.5697                 6.7251
 IR Inten    --      8.8655                10.7240                 0.5451

                     58                     59                     60
                      A                      A                      A
 Frequencies --   3233.5693              3612.6147              3752.3076
 Red. masses --      1.0926                 1.0762                 1.0642
 Frc consts  --      6.7308                 8.2755                 8.8278
 IR Inten    --      2.4907               169.8471                88.8809

 - Thermochemistry -
 -------------------
 Temperature   298.150 Kelvin.  Pressure   1.00000 Atm.
 Atom     1 has atomic number  8 and mass  15.99491

 Molecular mass:   196.04841 amu.
 Principal axes and moments of inertia in atomic units:
                           1         2         3
     Eigenvalues --   644.682247414.781468048.31431
           X            0.99999  -0.00449  -0.00000
           Y            0.00449   0.99999  -0.00000
           Z            0.00000   0.00000   1.00000
 This molecule is an asymmetric top.
 Rotational symmetry number  1.
 Warning -- assumption of classical behavior for rotation
           may cause significant error
 Rotational temperatures (Kelvin)      0.13435     0.01168     0.01076
 Rotational constants (GHZ):           2.79943     0.24340     0.22424
 Zero-point vibrational energy     427675.2 (Joules/Mol)
                                  102.21682 (Kcal/Mol)
 Warning -- explicit consideration of  18 degrees of freedom as
           vibrations may cause significant error
 Vibrational temperatures:     17.88    81.34   114.30   120.77   156.92
          (Kelvin)            173.94   294.44   340.45   419.13   474.91
                              612.41   624.21   640.93   735.64   738.05
                              761.82   792.97   886.74   928.97   964.60
                              988.58  1028.76  1127.76  1182.95  1208.84
                             1232.00  1259.01  1302.16  1380.99  1425.01
                             1459.27  1481.71  1622.04  1626.56  1665.98
                             1714.95  1740.93  1776.31  1845.63  1901.55
                             1934.43  1977.10  1999.17  2049.63  2094.27
                             2148.11  2184.62  2246.57  2291.65  2362.11
                             2371.53  2650.99  4303.11  4331.61  4571.93
                             4605.80  4651.93  4652.38  5197.74  5398.73

 Zero-point correction=                           0.162893 (Hartree/Particle)
 Thermal correction to Energy=                    0.175325
 Thermal correction to Enthalpy=                  0.176269
 Thermal correction to Gibbs Free Energy=         0.121539
 Sum of electronic and zero-point Energies=           -719.880261
 Sum of electronic and thermal Energies=              -719.867829
 Sum of electronic and thermal Enthalpies=            -719.866885
 Sum of electronic and thermal Free Energies=         -719.921615

                     E (Thermal)             CV                S
                      KCal/Mol        Cal/Mol-Kelvin    Cal/Mol-Kelvin
 Total                  110.018             45.601            115.189
 Electronic               0.000              0.000              0.000
 Translational            0.889              2.981             41.725
 Rotational               0.889              2.981             32.020
 Vibrational            108.241             39.640             41.444
 Vibration     1          0.593              1.987              7.579
 Vibration     2          0.596              1.975              4.575
 Vibration     3          0.600              1.963              3.905
 Vibration     4          0.601              1.960              3.797
 Vibration     5          0.606              1.942              3.285
 Vibration     6          0.609              1.932              3.086
 Vibration     7          0.640              1.833              2.091
 Vibration     8          0.656              1.785              1.828
 Vibration     9          0.687              1.690              1.466
 Vibration    10          0.713              1.615              1.260
 Vibration    11          0.787              1.414              0.873
 Vibration    12          0.795              1.396              0.846
 Vibration    13          0.805              1.371              0.810
 Vibration    14          0.866              1.225              0.630
 Vibration    15          0.868              1.221              0.626
 Vibration    16          0.884              1.185              0.588
 Vibration    17          0.906              1.137              0.542
 Vibration    18          0.976              0.997              0.422

 Optimization completed.
    -- Stationary point found.
 Normal termination of Gaussian 09 at Fri Aug 27 06:09:11 2021.

 -----------------------------------------------------------------
 #P Geom=AllCheck Guess=TCheck SCRF=Check CCSD(T,E4T,FrzG4)/GTBas1
 -----------------------------------------------------------------

 Structure from the checkpoint file:  "/public/home/users/caep010/.cache/gau_scr/Gau-6097.chk"
 ------
 LAHCEC
 ------
 Charge =  0 Multiplicity = 1

 SCF Done:  E(RHF) =  -715.846582902     A.U. after   14 cycles
 E2 =    -0.2064198971D+01 EUMP2 =    -0.71791078187339D+03
 CCSD(T)
 CCSD(T)= -0.71803615653D+03
 CCSD=-717.9492485\CCSD(T)=-718.0361565\RMSD=7.828e-09\PG=C01 [X(C8H8N2
 Normal termination of Gaussian 09 at Fri Aug 27 08:18:12 2021.

 ---------------------------------------------------------
 #P Geom=AllCheck Guess=TCheck SCRF=Check MP4=FrzG4/GTBas2
 ---------------------------------------------------------

 Structure from the checkpoint file:  "/public/home/users/caep010/.cache/gau_scr/Gau-6097.chk"
 ------
 LAHCEC
 ------
 Charge =  0 Multiplicity = 1

 SCF Done:  E(RHF) =  -715.867337506     A.U. after   14 cycles
 E2 =    -0.2091788103D+01 EUMP2 =    -0.71795912560868D+03
 Normal termination of Gaussian 09 at Fri Aug 27 09:27:55 2021.

 ---------------------------------------------------------
 #P Geom=AllCheck Guess=TCheck SCRF=Check MP4=FrzG4/GTBas3
 ---------------------------------------------------------

 Structure from the checkpoint file:  "/public/home/users/caep010/.cache/gau_scr/Gau-6097.chk"
 ------
 LAHCEC
 ------
 Charge =  0 Multiplicity = 1

 SCF Done:  E(RHF) =  -715.922695505     A.U. after   12 cycles
 E2 =    -0.2479901920D+01 EUMP2 =    -0.71840259742541D+03
 Normal termination of Gaussian 09 at Fri Aug 27 16:45:38 2021.

 -----------------------------------------------------------
 #P Geom=AllCheck Guess=TCheck SCRF=Check MP2=Full/GTLargeXP
 -----------------------------------------------------------

 Structure from the checkpoint file:  "/public/home/users/caep010/.cache/gau_scr/Gau-6097.chk"
 ------
 LAHCEC
 ------
 Charge =  0 Multiplicity = 1

 SCF Done:  E(RHF) =  -716.103219072     A.U. after   13 cycles
 E2 =    -0.3252838435D+01 EUMP2 =    -0.71935605750777D+03
 Normal termination of Gaussian 09 at Fri Aug 27 17:02:26 2021.
 SCF Done:  E(RHF) =  -716.160523011     A.U. after    9 cycles
 Normal termination of Gaussian 09 at Fri Aug 27 17:09:46 2021.

                         Standard orientation:
 ---------------------------------------------------------------------
 Center     Atomic      Atomic             Coordinates (Angstroms)
 Number     Number       Type             X           Y           Z
 ---------------------------------------------------------------------
      1          8           0       -4.333594   -1.291210   -0.000064
      2          7           0       -3.870469   -0.153323   -0.000059
      3          8           0       -4.549780    0.870237   -0.000098
      4          6           0       -2.422362   -0.007449   -0.000002
      5          6           0       -1.616817   -1.141951    0.000040
      6          6           0       -0.238777   -1.007863    0.000096
      7          6           0        0.355485    0.271630    0.000112
      8          6           0       -0.486511    1.406818    0.000069
      9          7           0        1.709554    0.440276    0.000184
     10          6           0       -1.858379    1.269876    0.000012
     11          6           0        2.674960   -0.618854    0.000061
     12          6           0        4.065479   -0.014088   -0.000058
     13          8           0        5.009318   -0.968552   -0.000103
     14          8           0        4.298807    1.167693   -0.000113
     15          1           0        0.379275   -1.897299    0.000133
     16          1           0       -2.084788   -2.117296    0.000029
     17          1           0       -2.511126    2.132431   -0.000025
     18          1           0       -0.040436    2.396255    0.000079
     19          1           0        2.100395    1.370604    0.000068
     20          1           0        5.868211   -0.519165   -0.000187
     21          1           0        2.589279   -1.274156    0.880083
     22          1           0        2.589121   -1.274103   -0.880003
 ---------------------------------------------------------------------

 SCF Done:  E(RHF) =  -716.171754779     A.U. after    8 cycles

 The electronic state is 1-A.
 Alpha  occ. eigenvalues --  -20.64363 -20.58476 -20.58443 -20.58264 -15.84018
 Alpha  occ. eigenvalues --  -15.60129 -11.42172 -11.32370 -11.31614 -11.28709
 Alpha  occ. eigenvalues --  -11.27466 -11.27262 -11.25221 -11.25146  -1.58846
 Alpha  occ. eigenvalues --   -1.50160  -1.40014  -1.38178  -1.28884  -1.18398
 Alpha  occ. eigenvalues --   -1.08789  -1.05039  -1.02391  -0.93546  -0.87855
 Alpha  occ. eigenvalues --   -0.84654  -0.81855  -0.77303  -0.76386  -0.74287
 Alpha  occ. eigenvalues --   -0.71707  -0.70638  -0.70088  -0.69934  -0.67980
 Alpha  occ. eigenvalues --   -0.64637  -0.62815  -0.62456  -0.61913  -0.60549
 Alpha  occ. eigenvalues --   -0.58594  -0.54740  -0.52150  -0.51952  -0.49303
 Alpha  occ. eigenvalues --   -0.48567  -0.48102  -0.46529  -0.44437  -0.37228
 Alpha  occ. eigenvalues --   -0.32149
 Alpha virt. eigenvalues --    0.02451   0.03335   0.03680   0.04122   0.04814
 Alpha virt. eigenvalues --    0.05311   0.05454   0.06455   0.06572   0.07407
 Alpha virt. eigenvalues --    0.07625   0.07750   0.07993   0.08773   0.09094

 Mulliken charges:
               1
     1  O   -0.453294
     2  N    0.519612
     3  O   -0.451629
     4  C    0.069017
     5  C   -0.199803
     6  C   -0.295702
     7  C    0.391049
     8  C   -0.283895
     9  N   -0.516985
    10  C   -0.157171
    11  C   -0.200563
    12  C    0.583018
    13  O   -0.530819
    14  O   -0.596325
    15  H    0.199422
    16  H    0.262219
    17  H    0.261540
    18  H    0.191988
    19  H    0.378003
    20  H    0.415326
    21  H    0.207501
    22  H    0.207493
 Sum of Mulliken charges =  -0.00000

 Dipole moment (field-independent basis, Debye):
    X=              7.6829    Y=             -0.8847    Z=              0.0000  Tot=              7.7337
 Quadrupole moment (field-independent basis, Debye-Ang):
   XX=            -99.8609   YY=            -79.6445   ZZ=            -81.9021
   XY=             -8.4841   XZ=             -0.0012   YZ=             -0.0001

 Normal termination of Gaussian 09 at Fri Aug 27 18:03:15 2021.
