 Gaussian 09, Revision E.01,
 Gaussian 09:  ES64L-G09RevE.01 30-Nov-2015

 ----------------
 #P G4 OPT=calcfc
 ----------------

 ------
 LOJBER
 ------
 Symbolic Z-matrix:
 Charge =  0 Multiplicity = 1

 SCF Done:  E(RB3LYP) =  -649.171703901     A.U. after   15 cycles
 SCF Done:  E(RB3LYP) =  -649.302251116     A.U. after   13 cycles
 SCF Done:  E(RB3LYP) =  -649.407166198     A.U. after   13 cycles
 SCF Done:  E(RB3LYP) =  -649.411011471     A.U. after   13 cycles
 SCF Done:  E(RB3LYP) =  -649.411394121     A.U. after   12 cycles
 SCF Done:  E(RB3LYP) =  -649.411450529     A.U. after   11 cycles
 SCF Done:  E(RB3LYP) =  -649.411440063     A.U. after   11 cycles
 SCF Done:  E(RB3LYP) =  -649.411467428     A.U. after   11 cycles
 SCF Done:  E(RB3LYP) =  -649.411468850     A.U. after    9 cycles
 SCF Done:  E(RB3LYP) =  -649.411472670     A.U. after   10 cycles
 SCF Done:  E(RB3LYP) =  -649.411476815     A.U. after    8 cycles
 SCF Done:  E(RB3LYP) =  -649.411477138     A.U. after    8 cycles
 SCF Done:  E(RB3LYP) =  -649.411477096     A.U. after    7 cycles
 Optimization completed.
    -- Stationary point found.
 Normal termination of Gaussian 09 at Thu Aug 26 00:13:15 2021.

 ----------------------------------------------------------
 #P Geom=AllCheck Guess=TCheck SCRF=Check B3LYP/GTBas3 Freq
 ----------------------------------------------------------

 Structure from the checkpoint file:  "/public/home/users/caep010/.cache/gau_scr/Gau-88079.chk"
 ------
 LOJBER
 ------
 Charge =  0 Multiplicity = 1

 SCF Done:  E(RB3LYP) =  -649.411477096     A.U. after    1 cycles

  Exact polarizability: 226.826  -3.817 127.730  -0.797  -0.579  73.066
 Approx polarizability: 313.586  -8.806 237.019  -2.685  -1.534 117.694

                      1                      2                      3
                      A                      A                      A
 Frequencies --     24.1538                42.4536                64.0853
 Red. masses --      4.5624                 2.0313                 4.1018
 Frc consts  --      0.0016                 0.0022                 0.0099
 IR Inten    --      0.5612                 3.6240                 1.0068

                      4                      5                      6
                      A                      A                      A
 Frequencies --     79.1961                95.8985               123.9237
 Red. masses --      6.0151                 3.7639                 1.8591
 Frc consts  --      0.0222                 0.0204                 0.0168
 IR Inten    --      0.9257                 0.1542                 5.5418

                      7                      8                      9
                      A                      A                      A
 Frequencies --    141.7638               176.9293               225.6508
 Red. masses --      4.3483                 4.1179                 6.0562
 Frc consts  --      0.0515                 0.0759                 0.1817
 IR Inten    --      9.7271                 0.3375                 0.5748

                     10                     11                     12
                      A                      A                      A
 Frequencies --    249.3798               280.1763               294.7402
 Red. masses --      1.1264                 3.9459                 6.1746
 Frc consts  --      0.0413                 0.1825                 0.3160
 IR Inten    --      0.6771                 4.4479                 4.4548

                     13                     14                     15
                      A                      A                      A
 Frequencies --    317.1426               387.8921               423.2610
 Red. masses --      1.1657                 3.7088                 4.6613
 Frc consts  --      0.0691                 0.3288                 0.4920
 IR Inten    --     62.8006                 0.9511                 0.4274

                     16                     17                     18
                      A                      A                      A
 Frequencies --    430.3772               511.1550               516.9913
 Red. masses --      3.2704                 2.8475                 4.5128
 Frc consts  --      0.3569                 0.4384                 0.7107
 IR Inten    --      0.6510                 3.5109                 2.4388

                     19                     20                     21
                      A                      A                      A
 Frequencies --    550.3994               642.1101               673.1683
 Red. masses --      4.8546                 7.0531                 6.6840
 Frc consts  --      0.8665                 1.7134                 1.7846
 IR Inten    --      4.0704                 0.6859                15.2354

                     22                     23                     24
                      A                      A                      A
 Frequencies --    715.0585               746.1085               784.1424
 Red. masses --      3.3241                 1.0744                 5.4906
 Frc consts  --      1.0014                 0.3524                 1.9891
 IR Inten    --      9.4094                 3.4925                22.2821

                     25                     26                     27
                      A                      A                      A
 Frequencies --    809.8891               825.4905               832.6314
 Red. masses --      1.1769                 1.2297                 5.3621
 Frc consts  --      0.4548                 0.4937                 2.1903
 IR Inten    --      0.2542                 0.1614                 2.3071

                     28                     29                     30
                      A                      A                      A
 Frequencies --    856.7313               874.4367               918.7984
 Red. masses --      1.9229                 7.6944                 1.8718
 Frc consts  --      0.8316                 3.4664                 0.9310
 IR Inten    --     26.4525                22.4642                 5.3292

                     31                     32                     33
                      A                      A                      A
 Frequencies --    957.8385               961.5440               990.6383
 Red. masses --      1.2266                 1.2183                 1.3560
 Frc consts  --      0.6630                 0.6637                 0.7840
 IR Inten    --      0.0605                 0.1141                 1.5486

                     34                     35                     36
                      A                      A                      A
 Frequencies --   1013.4684              1026.7622              1070.6136
 Red. masses --      2.8189                 3.3812                 2.3262
 Frc consts  --      1.7059                 2.1002                 1.5710
 IR Inten    --      3.0932                 0.2393                 0.9096

                     37                     38                     39
                      A                      A                      A
 Frequencies --   1100.1370              1129.3316              1132.5448
 Red. masses --      2.8258                 1.4240                 2.3233
 Frc consts  --      2.0151                 1.0701                 1.7558
 IR Inten    --      1.7214                11.2721               147.6481

                     40                     41                     42
                      A                      A                      A
 Frequencies --   1161.7592              1183.1482              1209.8790
 Red. masses --      2.4063                 1.5907                 1.4061
 Frc consts  --      1.9135                 1.3120                 1.2127
 IR Inten    --     31.7083                 4.3441                18.3895

                     43                     44                     45
                      A                      A                      A
 Frequencies --   1252.7742              1275.9976              1313.9952
 Red. masses --      1.3040                 1.4629                 1.3922
 Frc consts  --      1.2058                 1.4033                 1.4163
 IR Inten    --      1.3345                45.4316                 4.9387

                     46                     47                     48
                      A                      A                      A
 Frequencies --   1317.6671              1332.1334              1333.8366
 Red. masses --      1.1712                 1.3544                 1.2553
 Frc consts  --      1.1981                 1.4161                 1.3159
 IR Inten    --      1.9847                36.2117                23.5469

                     49                     50                     51
                      A                      A                      A
 Frequencies --   1372.3585              1386.6472              1390.1360
 Red. masses --      7.5598                 1.5194                 5.6495
 Frc consts  --      8.3887                 1.7213                 6.4324
 IR Inten    --    728.6191                 1.1800               135.1245

                     52                     53                     54
                      A                      A                      A
 Frequencies --   1412.3664              1418.9254              1450.0277
 Red. masses --      1.4311                 1.3527                 3.0046
 Frc consts  --      1.6819                 1.6046                 3.7221
 IR Inten    --      2.2370                 1.0781                15.0243

                     55                     56                     57
                      A                      A                      A
 Frequencies --   1488.1212              1496.6828              1500.7565
 Red. masses --      1.0613                 1.0733                 1.0399
 Frc consts  --      1.3847                 1.4166                 1.3800
 IR Inten    --      2.0026                 1.9847                 5.7711

                     58                     59                     60
                      A                      A                      A
 Frequencies --   1510.5985              1514.9751              1530.1885
 Red. masses --      1.0994                 1.8310                 1.1109
 Frc consts  --      1.4781                 2.4760                 1.5325
 IR Inten    --      5.3725                 8.0829                55.1372

                     61                     62                     63
                      A                      A                      A
 Frequencies --   1552.9581              1592.7528              1640.8077
 Red. masses --      3.1431                 6.0071                 8.1366
 Frc consts  --      4.4660                 8.9787                12.9065
 IR Inten    --    190.7880                82.1075               136.2010

                     64                     65                     66
                      A                      A                      A
 Frequencies --   1646.9401              2977.7596              3006.8557
 Red. masses --      6.1831                 1.0642                 1.0651
 Frc consts  --      9.8812                 5.5595                 5.6738
 IR Inten    --    349.7983                38.7344                 7.0645

                     67                     68                     69
                      A                      A                      A
 Frequencies --   3015.1548              3023.0466              3033.2153
 Red. masses --      1.0855                 1.0617                 1.0363
 Frc consts  --      5.8143                 5.7169                 5.6177
 IR Inten    --     11.3868                41.9934                37.3954

                     70                     71                     72
                      A                      A                      A
 Frequencies --   3040.6570              3064.1613              3100.0329
 Red. masses --      1.1005                 1.1047                 1.1023
 Frc consts  --      5.9948                 6.1109                 6.2416
 IR Inten    --      2.7034                42.1825                51.2733

                     73                     74                     75
                      A                      A                      A
 Frequencies --   3108.2206              3171.0767              3210.6296
 Red. masses --      1.1009                 1.0890                 1.0875
 Frc consts  --      6.2666                 6.4522                 6.6050
 IR Inten    --     32.0482                12.0604                 8.3364

                     76                     77                     78
                      A                      A                      A
 Frequencies --   3233.3918              3233.7123              3637.1332
 Red. masses --      1.0918                 1.0929                 1.0763
 Frc consts  --      6.7256                 6.7332                 8.3886
 IR Inten    --      0.0084                 3.1467                51.0538

 - Thermochemistry -
 -------------------
 Temperature   298.150 Kelvin.  Pressure   1.00000 Atm.
 Atom     1 has atomic number  8 and mass  15.99491

 Molecular mass:   194.10553 amu.
 Principal axes and moments of inertia in atomic units:
                           1         2         3
     Eigenvalues --   595.146518713.578829262.36471
           X            0.99999   0.00374   0.00037
           Y           -0.00374   0.99999  -0.00094
           Z           -0.00037   0.00094   1.00000
 This molecule is an asymmetric top.
 Rotational symmetry number  1.
 Warning -- assumption of classical behavior for rotation
           may cause significant error
 Rotational temperatures (Kelvin)      0.14553     0.00994     0.00935
 Rotational constants (GHZ):           3.03243     0.20712     0.19485
 Zero-point vibrational energy     610923.9 (Joules/Mol)
                                  146.01431 (Kcal/Mol)
 Warning -- explicit consideration of  19 degrees of freedom as
           vibrations may cause significant error
 Vibrational temperatures:     34.75    61.08    92.20   113.95   137.98
          (Kelvin)            178.30   203.97   254.56   324.66   358.80
                              403.11   424.06   456.30   558.09   608.98
                              619.22   735.44   743.83   791.90   923.85
                              968.54  1028.81  1073.48  1128.20  1165.25
                             1187.70  1197.97  1232.64  1258.12  1321.94
                             1378.11  1383.45  1425.31  1458.15  1477.28
                             1540.37  1582.85  1624.85  1629.48  1671.51
                             1702.28  1740.74  1802.46  1835.87  1890.54
                             1895.83  1916.64  1919.09  1974.52  1995.07
                             2000.09  2032.08  2041.51  2086.26  2141.07
                             2153.39  2159.25  2173.41  2179.71  2201.60
                             2234.36  2291.61  2360.75  2369.58  4284.33
                             4326.19  4338.13  4349.48  4364.11  4374.82
                             4408.64  4460.25  4472.03  4562.47  4619.37
                             4652.12  4652.58  5233.02

 Zero-point correction=                           0.232689 (Hartree/Particle)
 Thermal correction to Energy=                    0.246750
 Thermal correction to Enthalpy=                  0.247694
 Thermal correction to Gibbs Free Energy=         0.189958
 Sum of electronic and zero-point Energies=           -649.178788
 Sum of electronic and thermal Energies=              -649.164727
 Sum of electronic and thermal Enthalpies=            -649.163783
 Sum of electronic and thermal Free Energies=         -649.221520

                     E (Thermal)             CV                S
                      KCal/Mol        Cal/Mol-Kelvin    Cal/Mol-Kelvin
 Total                  154.838             51.323            121.518
 Electronic               0.000              0.000              0.000
 Translational            0.889              2.981             41.695
 Rotational               0.889              2.981             32.241
 Vibrational            153.061             45.362             47.582
 Vibration     1          0.593              1.985              6.260
 Vibration     2          0.595              1.980              5.141
 Vibration     3          0.597              1.971              4.327
 Vibration     4          0.600              1.963              3.911
 Vibration     5          0.603              1.952              3.536
 Vibration     6          0.610              1.929              3.038
 Vibration     7          0.615              1.911              2.780
 Vibration     8          0.628              1.871              2.361
 Vibration     9          0.650              1.802              1.913
 Vibration    10          0.662              1.764              1.735
 Vibration    11          0.680              1.710              1.533
 Vibration    12          0.689              1.684              1.447
 Vibration    13          0.704              1.641              1.325
 Vibration    14          0.756              1.496              1.008
 Vibration    15          0.785              1.420              0.881
 Vibration    16          0.792              1.404              0.857
 Vibration    17          0.866              1.225              0.631
 Vibration    18          0.872              1.212              0.617
 Vibration    19          0.906              1.139              0.543

 Optimization completed.
    -- Stationary point found.
 Normal termination of Gaussian 09 at Thu Aug 26 00:17:22 2021.

 -----------------------------------------------------------------
 #P Geom=AllCheck Guess=TCheck SCRF=Check CCSD(T,E4T,FrzG4)/GTBas1
 -----------------------------------------------------------------

 Structure from the checkpoint file:  "/public/home/users/caep010/.cache/gau_scr/Gau-88079.chk"
 ------
 LOJBER
 ------
 Charge =  0 Multiplicity = 1

 SCF Done:  E(RHF) =  -645.336836539     A.U. after   14 cycles
 E2 =    -0.1983333061D+01 EUMP2 =    -0.64732016959984D+03
 CCSD(T)
 CCSD(T)= -0.64747646018D+03
 7.3921361\CCSD(T)=-647.4764602\RMSD=7.535e-09\PG=C01 [X(C10H14N2O2)]\\
 Normal termination of Gaussian 09 at Thu Aug 26 02:53:12 2021.

 ---------------------------------------------------------
 #P Geom=AllCheck Guess=TCheck SCRF=Check MP4=FrzG4/GTBas2
 ---------------------------------------------------------

 Structure from the checkpoint file:  "/public/home/users/caep010/.cache/gau_scr/Gau-88079.chk"
 ------
 LOJBER
 ------
 Charge =  0 Multiplicity = 1

 SCF Done:  E(RHF) =  -645.352997513     A.U. after   16 cycles
 E2 =    -0.2007525598D+01 EUMP2 =    -0.64736052311122D+03
 Normal termination of Gaussian 09 at Thu Aug 26 04:07:25 2021.

 ---------------------------------------------------------
 #P Geom=AllCheck Guess=TCheck SCRF=Check MP4=FrzG4/GTBas3
 ---------------------------------------------------------

 Structure from the checkpoint file:  "/public/home/users/caep010/.cache/gau_scr/Gau-88079.chk"
 ------
 LOJBER
 ------
 Charge =  0 Multiplicity = 1

 SCF Done:  E(RHF) =  -645.407165681     A.U. after   12 cycles
 E2 =    -0.2397940194D+01 EUMP2 =    -0.64780510587493D+03
 Normal termination of Gaussian 09 at Thu Aug 26 16:15:41 2021.

 -----------------------------------------------------------
 #P Geom=AllCheck Guess=TCheck SCRF=Check MP2=Full/GTLargeXP
 -----------------------------------------------------------

 Structure from the checkpoint file:  "/public/home/users/caep010/.cache/gau_scr/Gau-88079.chk"
 ------
 LOJBER
 ------
 Charge =  0 Multiplicity = 1

 SCF Done:  E(RHF) =  -645.556730718     A.U. after   13 cycles
 E2 =    -0.3152610214D+01 EUMP2 =    -0.64870934093210D+03
 Normal termination of Gaussian 09 at Thu Aug 26 16:36:05 2021.
 SCF Done:  E(RHF) =  -645.608483825     A.U. after   10 cycles
 Normal termination of Gaussian 09 at Thu Aug 26 16:45:19 2021.

                         Standard orientation:
 ---------------------------------------------------------------------
 Center     Atomic      Atomic             Coordinates (Angstroms)
 Number     Number       Type             X           Y           Z
 ---------------------------------------------------------------------
      1          8           0        4.538921   -1.432035   -0.005170
      2          7           0        4.149604   -0.266484   -0.017225
      3          8           0        4.894836    0.710507   -0.043559
      4          6           0        2.715499   -0.026921    0.000911
      5          6           0        1.836421   -1.105972    0.028132
      6          6           0        2.235352    1.284154   -0.011596
      7          1           0        2.942654    2.102255   -0.034926
      8          6           0        0.875347    1.509246    0.005386
      9          1           0        0.496491    2.526863   -0.002409
     10          1           0        2.239675   -2.109874    0.034504
     11          6           0       -0.041114    0.432577    0.035416
     12          7           0       -1.382677    0.685378    0.070025
     13          1           0       -1.669445    1.642293   -0.055320
     14          6           0       -2.421802   -0.322683   -0.021468
     15          1           0       -2.320077   -1.031909    0.811636
     16          6           0        0.470568   -0.882990    0.043288
     17          1           0       -0.204715   -1.728646    0.061140
     18          1           0       -2.316229   -0.907642   -0.948673
     19          6           0       -3.806155    0.323080    0.026238
     20          1           0       -3.897119    1.038877   -0.802992
     21          6           0       -4.943768   -0.699438   -0.056512
     22          1           0       -4.846776   -1.415417    0.769769
     23          1           0       -3.897244    0.904271    0.953367
     24          1           0       -4.839525   -1.283427   -0.979960
     25          6           0       -6.330284   -0.052126   -0.013175
     26          1           0       -6.470519    0.641675   -0.849284
     27          1           0       -7.121011   -0.805919   -0.070386
     28          1           0       -6.475084    0.513002    0.914040
 ---------------------------------------------------------------------

 SCF Done:  E(RHF) =  -645.618559941     A.U. after    8 cycles

 The electronic state is 1-A.
 Alpha  occ. eigenvalues --  -20.58015 -20.57998 -15.83574 -15.59147 -11.31536
 Alpha  occ. eigenvalues --  -11.28175 -11.28113 -11.26859 -11.26763 -11.24618
 Alpha  occ. eigenvalues --  -11.24540 -11.24430 -11.23992 -11.22825  -1.58372
 Alpha  occ. eigenvalues --   -1.37696  -1.27541  -1.17714  -1.09792  -1.06298
 Alpha  occ. eigenvalues --   -1.04394  -0.99757  -0.93105  -0.88985  -0.85279
 Alpha  occ. eigenvalues --   -0.81900  -0.81107  -0.76643  -0.73173  -0.71234
 Alpha  occ. eigenvalues --   -0.70182  -0.67996  -0.67515  -0.64176  -0.61979
 Alpha  occ. eigenvalues --   -0.61564  -0.61216  -0.60052  -0.58268  -0.55528
 Alpha  occ. eigenvalues --   -0.55012  -0.52236  -0.51390  -0.49598  -0.49264
 Alpha  occ. eigenvalues --   -0.48895  -0.48144  -0.47650  -0.45195  -0.44036
 Alpha  occ. eigenvalues --   -0.36661  -0.31369
 Alpha virt. eigenvalues --    0.02632   0.03002   0.03385   0.04057   0.04814
 Alpha virt. eigenvalues --    0.04989   0.05158   0.06315   0.06382   0.06464
 Alpha virt. eigenvalues --    0.06678   0.06848   0.07648   0.08255   0.08665

 Mulliken charges:
               1
     1  O   -0.456099
     2  N    0.524899
     3  O   -0.456537
     4  C    0.049281
     5  C   -0.175097
     6  C   -0.155983
     7  H    0.259702
     8  C   -0.303165
     9  H    0.180913
    10  H    0.261502
    11  C    0.385620
    12  N   -0.512052
    13  H    0.327922
    14  C   -0.170291
    15  H    0.163849
    16  C   -0.293709
    17  H    0.204986
    18  H    0.165411
    19  C   -0.330908
    20  H    0.162408
    21  C   -0.252568
    22  H    0.156678
    23  H    0.171664
    24  H    0.155469
    25  C   -0.551075
    26  H    0.158948
    27  H    0.168456
    28  H    0.159777
 Sum of Mulliken charges =  -0.00000

 Dipole moment (field-independent basis, Debye):
    X=             -8.4363    Y=              1.1801    Z=             -0.1570  Tot=              8.5199
 Quadrupole moment (field-independent basis, Debye-Ang):
   XX=           -112.2329   YY=            -79.9961   ZZ=            -86.7197
   XY=              3.3077   XZ=              0.5899   YZ=             -0.5066

 Normal termination of Gaussian 09 at Thu Aug 26 17:45:13 2021.
