 Gaussian 09, Revision E.01,
 Gaussian 09:  ES64L-G09RevE.01 30-Nov-2015

 ----------------
 #P G4 OPT=calcfc
 ----------------

 ------
 LEHNIW
 ------
 Symbolic Z-matrix:
 Charge =  0 Multiplicity = 1

 SCF Done:  E(RB3LYP) =  -658.554218895     A.U. after   16 cycles
 SCF Done:  E(RB3LYP) =  -658.636239346     A.U. after   13 cycles
 SCF Done:  E(RB3LYP) =  -658.662191288     A.U. after   15 cycles
 SCF Done:  E(RB3LYP) =  -658.663876414     A.U. after   13 cycles
 SCF Done:  E(RB3LYP) =  -658.665810700     A.U. after   14 cycles
 SCF Done:  E(RB3LYP) =  -658.666090105     A.U. after   14 cycles
 SCF Done:  E(RB3LYP) =  -658.666117532     A.U. after   16 cycles
 SCF Done:  E(RB3LYP) =  -658.664293917     A.U. after   16 cycles
 SCF Done:  E(RB3LYP) =  -658.666132925     A.U. after   13 cycles
 SCF Done:  E(RB3LYP) =  -658.666148527     A.U. after   12 cycles
 SCF Done:  E(RB3LYP) =  -658.666190977     A.U. after    9 cycles
 SCF Done:  E(RB3LYP) =  -658.666191005     A.U. after    9 cycles
 SCF Done:  E(RB3LYP) =  -658.666191009     A.U. after    8 cycles
 Optimization completed on the basis of negligible forces.
    -- Stationary point found.
 Normal termination of Gaussian 09 at Thu Aug 26 14:08:55 2021.

 ----------------------------------------------------------
 #P Geom=AllCheck Guess=TCheck SCRF=Check B3LYP/GTBas3 Freq
 ----------------------------------------------------------

 Structure from the checkpoint file:  "/public/home/users/caep010/.cache/gau_scr/Gau-64828.chk"
 ------
 LEHNIW
 ------
 Charge =  0 Multiplicity = 1

 SCF Done:  E(RB3LYP) =  -658.666191009     A.U. after    1 cycles

  Exact polarizability: 119.341  -6.001 100.754   0.003   0.008  43.835
 Approx polarizability: 182.399 -29.207 199.662   0.013   0.046  70.772

                      1                      2                      3
                      A                      A                      A
 Frequencies --      6.5840                59.1271                72.8689
 Red. masses --     14.8639                 1.1918                 4.7574
 Frc consts  --      0.0004                 0.0025                 0.0149
 IR Inten    --      0.2684                 0.8571                 1.2308

                      4                      5                      6
                      A                      A                      A
 Frequencies --    123.5841               220.0662               225.6637
 Red. masses --      4.7903                 8.6128                 4.1817
 Frc consts  --      0.0431                 0.2458                 0.1255
 IR Inten    --     10.7521                 0.9875                 1.4696

                      7                      8                      9
                      A                      A                      A
 Frequencies --    269.6905               348.5739               352.8228
 Red. masses --      8.9450                 4.1390                10.5469
 Frc consts  --      0.3833                 0.2963                 0.7735
 IR Inten    --      3.6508                 6.8501                 4.8261

                     10                     11                     12
                      A                      A                      A
 Frequencies --    415.2890               430.9692               436.8090
 Red. masses --      7.5546                 3.3979                10.5833
 Frc consts  --      0.7677                 0.3718                 1.1897
 IR Inten    --     19.6212                 7.1283                10.7178

                     13                     14                     15
                      A                      A                      A
 Frequencies --    511.6615               623.7148               635.5894
 Red. masses --     10.3542                 8.4269                 1.1793
 Frc consts  --      1.5971                 1.9315                 0.2807
 IR Inten    --      3.8690                20.4333                70.2472

                     16                     17                     18
                      A                      A                      A
 Frequencies --    652.2054               737.3470               759.6786
 Red. masses --      4.5944                 9.5166                 8.8643
 Frc consts  --      1.1515                 3.0484                 3.0141
 IR Inten    --      0.8741                 3.6569                11.3996

                     19                     20                     21
                      A                      A                      A
 Frequencies --    770.6874               802.0832               840.8894
 Red. masses --     11.1713                 8.9278                 9.9569
 Frc consts  --      3.9094                 3.3840                 4.1481
 IR Inten    --     22.6230                19.7927                24.4854

                     22                     23                     24
                      A                      A                      A
 Frequencies --    920.4925               994.1601              1012.7900
 Red. masses --      5.3429                 1.4012                 2.3244
 Frc consts  --      2.6673                 0.8159                 1.4047
 IR Inten    --     16.6137                 3.5638                15.4911

                     25                     26                     27
                      A                      A                      A
 Frequencies --   1101.9719              1160.0357              1193.2591
 Red. masses --      2.8536                 1.3018                 5.5150
 Frc consts  --      2.0417                 1.0321                 4.6267
 IR Inten    --     36.8475                 0.4556                28.9644

                     28                     29                     30
                      A                      A                      A
 Frequencies --   1226.8597              1277.5829              1343.9069
 Red. masses --      1.8314                 2.6356                 2.8257
 Frc consts  --      1.6241                 2.5346                 3.0069
 IR Inten    --     45.5931                18.6314               216.6258

                     31                     32                     33
                      A                      A                      A
 Frequencies --   1372.7732              1395.1428              1452.7700
 Red. masses --      6.1970                 2.6054                 1.4681
 Frc consts  --      6.8807                 2.9879                 1.8256
 IR Inten    --    379.9227                16.5142                70.7314

                     34                     35                     36
                      A                      A                      A
 Frequencies --   1494.3648              1498.4229              1514.8281
 Red. masses --      1.0421                 1.1833                 2.3221
 Frc consts  --      1.3711                 1.5654                 3.1395
 IR Inten    --      8.8368                14.4477               110.0927

                     37                     38                     39
                      A                      A                      A
 Frequencies --   1625.9706              1677.1141              1796.2654
 Red. masses --     13.0284                 7.0381                11.7811
 Frc consts  --     20.2940                11.6635                22.3963
 IR Inten    --     78.2662               169.5088               711.1725

                     40                     41                     42
                      A                      A                      A
 Frequencies --   1833.2800              3069.9210              3135.7471
 Red. masses --      9.9369                 1.0344                 1.1045
 Frc consts  --     19.6769                 5.7437                 6.3989
 IR Inten    --    212.7105                17.5104                 8.5047

                     43                     44                     45
                      A                      A                      A
 Frequencies --   3198.4643              3240.0154              3635.2103
 Red. masses --      1.1015                 1.0932                 1.0785
 Frc consts  --      6.6395                 6.7615                 8.3974
 IR Inten    --      1.4202                 7.4294               127.1204

 - Thermochemistry -
 -------------------
 Temperature   298.150 Kelvin.  Pressure   1.00000 Atm.
 Atom     1 has atomic number  7 and mass  14.00307

 Molecular mass:   171.02801 amu.
 Principal axes and moments of inertia in atomic units:
                           1         2         3
     Eigenvalues --   971.018022463.769683423.48848
           X            0.99951   0.03123  -0.00000
           Y           -0.03123   0.99951  -0.00001
           Z            0.00000   0.00001   1.00000
 This molecule is an asymmetric top.
 Rotational symmetry number  1.
 Warning -- assumption of classical behavior for rotation
           may cause significant error
 Rotational temperatures (Kelvin)      0.08920     0.03515     0.02530
 Rotational constants (GHZ):           1.85861     0.73251     0.52716
 Zero-point vibrational energy     307842.5 (Joules/Mol)
                                   73.57613 (Kcal/Mol)
 Warning -- explicit consideration of  13 degrees of freedom as
           vibrations may cause significant error
 Vibrational temperatures:      9.47    85.07   104.84   177.81   316.63
          (Kelvin)            324.68   388.02   501.52   507.63   597.51
                              620.07   628.47   736.17   897.39   914.47
                              938.38  1060.88  1093.01  1108.85  1154.02
                             1209.85  1324.38  1430.37  1457.18  1585.49
                             1669.03  1716.83  1765.18  1838.15  1933.58
                             1975.11  2007.30  2090.21  2150.05  2155.89
                             2179.50  2339.41  2412.99  2584.42  2637.68
                             4416.93  4511.64  4601.87  4661.65  5230.25

 Zero-point correction=                           0.117251 (Hartree/Particle)
 Thermal correction to Energy=                    0.127715
 Thermal correction to Enthalpy=                  0.128659
 Thermal correction to Gibbs Free Energy=         0.078186
 Sum of electronic and zero-point Energies=           -658.548940
 Sum of electronic and thermal Energies=              -658.538476
 Sum of electronic and thermal Enthalpies=            -658.537532
 Sum of electronic and thermal Free Energies=         -658.588005

                     E (Thermal)             CV                S
                      KCal/Mol        Cal/Mol-Kelvin    Cal/Mol-Kelvin
 Total                   80.142             37.123            106.228
 Electronic               0.000              0.000              0.000
 Translational            0.889              2.981             41.318
 Rotational               0.889              2.981             30.483
 Vibrational             78.365             31.161             34.427
 Vibration     1          0.593              1.987              8.841
 Vibration     2          0.596              1.974              4.486
 Vibration     3          0.599              1.967              4.074
 Vibration     4          0.610              1.929              3.044
 Vibration     5          0.647              1.811              1.959
 Vibration     6          0.650              1.802              1.913
 Vibration     7          0.674              1.729              1.598
 Vibration     8          0.726              1.578              1.173
 Vibration     9          0.729              1.569              1.154
 Vibration    10          0.779              1.437              0.908
 Vibration    11          0.792              1.403              0.855
 Vibration    12          0.797              1.390              0.837
 Vibration    13          0.867              1.224              0.630

 Optimization completed on the basis of negligible forces.
    -- Stationary point found.
 Normal termination of Gaussian 09 at Thu Aug 26 14:11:08 2021.

 -----------------------------------------------------------------
 #P Geom=AllCheck Guess=TCheck SCRF=Check CCSD(T,E4T,FrzG4)/GTBas1
 -----------------------------------------------------------------

 Structure from the checkpoint file:  "/public/home/users/caep010/.cache/gau_scr/Gau-64828.chk"
 ------
 LEHNIW
 ------
 Charge =  0 Multiplicity = 1

 SCF Done:  E(RHF) =  -654.948394293     A.U. after   15 cycles
 E2 =    -0.1841817980D+01 EUMP2 =    -0.65679021227299D+03
 CCSD(T)
 CCSD(T)= -0.65688771530D+03
 06203\CCSD(T)=-656.8877153\RMSD=8.717e-09\PG=C01 [X(C5H5N3O4)]\\@
 Normal termination of Gaussian 09 at Thu Aug 26 15:14:46 2021.

 ---------------------------------------------------------
 #P Geom=AllCheck Guess=TCheck SCRF=Check MP4=FrzG4/GTBas2
 ---------------------------------------------------------

 Structure from the checkpoint file:  "/public/home/users/caep010/.cache/gau_scr/Gau-64828.chk"
 ------
 LEHNIW
 ------
 Charge =  0 Multiplicity = 1

 SCF Done:  E(RHF) =  -654.965015161     A.U. after   16 cycles
 E2 =    -0.1866142288D+01 EUMP2 =    -0.65683115744909D+03
 Normal termination of Gaussian 09 at Thu Aug 26 15:35:23 2021.

 ---------------------------------------------------------
 #P Geom=AllCheck Guess=TCheck SCRF=Check MP4=FrzG4/GTBas3
 ---------------------------------------------------------

 Structure from the checkpoint file:  "/public/home/users/caep010/.cache/gau_scr/Gau-64828.chk"
 ------
 LEHNIW
 ------
 Charge =  0 Multiplicity = 1

 SCF Done:  E(RHF) =  -655.015596801     A.U. after   13 cycles
 E2 =    -0.2207639448D+01 EUMP2 =    -0.65722323624864D+03
 Normal termination of Gaussian 09 at Thu Aug 26 18:13:42 2021.

 -----------------------------------------------------------
 #P Geom=AllCheck Guess=TCheck SCRF=Check MP2=Full/GTLargeXP
 -----------------------------------------------------------

 Structure from the checkpoint file:  "/public/home/users/caep010/.cache/gau_scr/Gau-64828.chk"
 ------
 LEHNIW
 ------
 Charge =  0 Multiplicity = 1

 SCF Done:  E(RHF) =  -655.183626834     A.U. after   15 cycles
 E2 =    -0.2881760838D+01 EUMP2 =    -0.65806538767164D+03
 Normal termination of Gaussian 09 at Thu Aug 26 18:29:56 2021.
 SCF Done:  E(RHF) =  -655.234566003     A.U. after   10 cycles
 Normal termination of Gaussian 09 at Thu Aug 26 18:35:25 2021.

                         Standard orientation:
 ---------------------------------------------------------------------
 Center     Atomic      Atomic             Coordinates (Angstroms)
 Number     Number       Type             X           Y           Z
 ---------------------------------------------------------------------
      1          7           0        0.879444   -1.751276    0.000229
      2          6           0       -0.442518   -1.492969    0.000106
      3          6           0       -0.912287   -0.222511   -0.000029
      4          6           0        0.006620    0.925549   -0.000328
      5          7           0       -2.363953   -0.058338    0.000125
      6          8           0       -3.035573   -1.091337   -0.001513
      7          8           0       -2.821569    1.069275    0.001986
      8          1           0       -1.127229   -2.330587    0.000137
      9          6           0        1.870428   -0.758902    0.000214
     10          8           0        3.044198   -1.048784    0.000388
     11          8           0       -0.291793    2.093799   -0.000916
     12          1           0        1.230520   -2.697422    0.000421
     13          7           0        1.381221    0.532316   -0.000043
     14          6           0        2.398283    1.590403   -0.000215
     15          1           0        3.029705    1.496334    0.885506
     16          1           0        1.875523    2.543154    0.000013
     17          1           0        3.029230    1.496578   -0.886300
 ---------------------------------------------------------------------

 SCF Done:  E(RHF) =  -655.244783491     A.U. after    8 cycles

 The electronic state is 1-A.
 Alpha  occ. eigenvalues --  -20.61151 -20.59825 -20.56855 -20.56082 -15.86626
 Alpha  occ. eigenvalues --  -15.67511 -15.64891 -11.43795 -11.40959 -11.38069
 Alpha  occ. eigenvalues --  -11.32507 -11.27847  -1.61372  -1.46294  -1.42852
 Alpha  occ. eigenvalues --   -1.40535  -1.34379  -1.27824  -1.15742  -1.01176
 Alpha  occ. eigenvalues --   -0.99199  -0.92820  -0.88105  -0.81766  -0.80941
 Alpha  occ. eigenvalues --   -0.75277  -0.73563  -0.73043  -0.70804  -0.70146
 Alpha  occ. eigenvalues --   -0.68191  -0.66300  -0.62865  -0.61896  -0.58380
 Alpha  occ. eigenvalues --   -0.57743  -0.54047  -0.52082  -0.50731  -0.49922
 Alpha  occ. eigenvalues --   -0.46399  -0.46188  -0.43834  -0.40409
 Alpha virt. eigenvalues --    0.01663   0.02791   0.03626   0.04061   0.04616
 Alpha virt. eigenvalues --    0.05231   0.06197   0.06248   0.07113   0.07639
 Alpha virt. eigenvalues --    0.07945   0.08435   0.08952   0.09386   0.09787

 Mulliken charges:
               1
     1  N   -0.435400
     2  C    0.064836
     3  C    0.105352
     4  C    0.446498
     5  N    0.511036
     6  O   -0.486203
     7  O   -0.366186
     8  H    0.296060
     9  C    0.532575
    10  O   -0.642515
    11  O   -0.541402
    12  H    0.401275
    13  N   -0.036437
    14  C   -0.521695
    15  H    0.204210
    16  H    0.263858
    17  H    0.204137
 Sum of Mulliken charges =  -0.00000

 Dipole moment (field-independent basis, Debye):
    X=              3.2584    Y=             -4.0706    Z=              0.0011  Tot=              5.2141
 Quadrupole moment (field-independent basis, Debye-Ang):
   XX=            -91.2588   YY=            -64.1639   ZZ=            -65.9715
   XY=              7.5512   XZ=             -0.0033   YZ=             -0.0049

 Normal termination of Gaussian 09 at Thu Aug 26 19:12:56 2021.
