 Gaussian 09, Revision E.01,
 Gaussian 09:  ES64L-G09RevE.01 30-Nov-2015

 ----------------
 #P G4 OPT=calcfc
 ----------------

 ------
 LEKHUE
 ------
 Symbolic Z-matrix:
 Charge =  0 Multiplicity = 1

 SCF Done:  E(RB3LYP) =  -509.186777443     A.U. after   15 cycles
 SCF Done:  E(RB3LYP) =  -509.315922688     A.U. after   13 cycles
 SCF Done:  E(RB3LYP) =  -509.395284739     A.U. after   14 cycles
 SCF Done:  E(RB3LYP) =  -509.397659757     A.U. after   13 cycles
 SCF Done:  E(RB3LYP) =  -509.398346380     A.U. after   13 cycles
 SCF Done:  E(RB3LYP) =  -509.398575484     A.U. after   11 cycles
 SCF Done:  E(RB3LYP) =  -509.398635211     A.U. after   11 cycles
 SCF Done:  E(RB3LYP) =  -509.398639040     A.U. after   11 cycles
 SCF Done:  E(RB3LYP) =  -509.398645290     A.U. after    9 cycles
 SCF Done:  E(RB3LYP) =  -509.398645889     A.U. after    8 cycles
 SCF Done:  E(RB3LYP) =  -509.398646251     A.U. after    8 cycles
 SCF Done:  E(RB3LYP) =  -509.398646304     A.U. after    7 cycles
 SCF Done:  E(RB3LYP) =  -509.398646316     A.U. after    6 cycles
 Optimization completed.
    -- Stationary point found.
 Normal termination of Gaussian 09 at Fri Aug 27 05:51:45 2021.

 ----------------------------------------------------------
 #P Geom=AllCheck Guess=TCheck SCRF=Check B3LYP/GTBas3 Freq
 ----------------------------------------------------------

 Structure from the checkpoint file:  "/public/home/users/caep010/.cache/gau_scr/Gau-25980.chk"
 ------
 LEKHUE
 ------
 Charge =  0 Multiplicity = 1

 SCF Done:  E(RB3LYP) =  -509.398646316     A.U. after    1 cycles

  Exact polarizability: 108.689  -0.365  92.785   0.002  -0.002  45.621
 Approx polarizability: 160.331   3.452 168.839   0.005  -0.008  72.028

                      1                      2                      3
                      A                      A                      A
 Frequencies --     45.6650                88.2910                92.7080
 Red. masses --      1.6686                 2.0491                 1.0537
 Frc consts  --      0.0021                 0.0094                 0.0053
 IR Inten    --      0.0574                 0.8781                 0.0257

                      4                      5                      6
                      A                      A                      A
 Frequencies --    157.5031               194.6599               213.7747
 Red. masses --      3.8540                 5.4892                 4.2130
 Frc consts  --      0.0563                 0.1225                 0.1134
 IR Inten    --      1.2346                 0.5474                 0.0581

                      7                      8                      9
                      A                      A                      A
 Frequencies --    262.2761               335.8087               389.0772
 Red. masses --      2.6705                 4.2361                 4.2702
 Frc consts  --      0.1082                 0.2814                 0.3809
 IR Inten    --      2.4228                 1.5231                 2.4163

                     10                     11                     12
                      A                      A                      A
 Frequencies --    431.0173               570.4065               578.7894
 Red. masses --      8.6007                 4.4774                 1.3536
 Frc consts  --      0.9414                 0.8583                 0.2672
 IR Inten    --      0.3885                 1.3255                63.3128

                     13                     14                     15
                      A                      A                      A
 Frequencies --    621.4040               661.0493               693.8516
 Red. masses --      4.3815                 4.8558                 3.5519
 Frc consts  --      0.9968                 1.2502                 1.0075
 IR Inten    --      0.0467                17.3260                 0.4509

                     16                     17                     18
                      A                      A                      A
 Frequencies --    759.4253               799.1071               862.5906
 Red. masses --      6.1789                11.2623                 9.7026
 Frc consts  --      2.0996                 4.2373                 4.2535
 IR Inten    --     11.4967                 4.1479                35.7878

                     19                     20                     21
                      A                      A                      A
 Frequencies --    980.7082              1003.3147              1042.6891
 Red. masses --      1.5835                 1.9083                 3.0316
 Frc consts  --      0.8973                 1.1318                 1.9419
 IR Inten    --      3.1477                19.4494                 2.0537

                     22                     23                     24
                      A                      A                      A
 Frequencies --   1055.4349              1065.0735              1175.6418
 Red. masses --      1.4540                 1.5033                 6.6794
 Frc consts  --      0.9543                 1.0048                 5.4392
 IR Inten    --      0.7414                 2.9458                 7.4900

                     25                     26                     27
                      A                      A                      A
 Frequencies --   1227.4069              1309.4726              1376.8005
 Red. masses --      1.6134                 8.2445                 3.5941
 Frc consts  --      1.4321                 8.3293                 4.0141
 IR Inten    --      0.7283                22.7112                94.5291

                     28                     29                     30
                      A                      A                      A
 Frequencies --   1405.9275              1415.9240              1422.7072
 Red. masses --      2.6032                 1.9573                 1.8762
 Frc consts  --      3.0317                 2.3121                 2.2374
 IR Inten    --    113.1513               101.6841                39.1883

                     31                     32                     33
                      A                      A                      A
 Frequencies --   1428.2928              1463.6719              1482.3985
 Red. masses --      1.7791                 1.0426                 1.0422
 Frc consts  --      2.1384                 1.3160                 1.3494
 IR Inten    --     10.1303                 6.0621                 7.3130

                     34                     35                     36
                      A                      A                      A
 Frequencies --   1487.7819              1496.3089              1575.1028
 Red. masses --      1.1625                 1.2208                 8.4887
 Frc consts  --      1.5160                 1.6104                12.4082
 IR Inten    --      0.2377                14.2408                49.5436

                     37                     38                     39
                      A                      A                      A
 Frequencies --   1612.0367              1639.1228              3034.7655
 Red. masses --      7.9517                 7.4192                 1.0398
 Frc consts  --     12.1748                11.7443                 5.6421
 IR Inten    --    114.4376               174.2693                23.5417

                     40                     41                     42
                      A                      A                      A
 Frequencies --   3046.7100              3086.2410              3118.2059
 Red. masses --      1.0363                 1.1002                 1.0998
 Frc consts  --      5.6677                 6.1744                 6.3005
 IR Inten    --     15.6427                12.7047                 2.1014

                     43                     44                     45
                      A                      A                      A
 Frequencies --   3121.9617              3155.4615              3640.7325
 Red. masses --      1.1015                 1.0972                 1.0804
 Frc consts  --      6.3252                 6.4367                 8.4377
 IR Inten    --     14.0734                 1.4281                51.2459

 - Thermochemistry -
 -------------------
 Temperature   298.150 Kelvin.  Pressure   1.00000 Atm.
 Atom     1 has atomic number  7 and mass  14.00307

 Molecular mass:   141.05383 amu.
 Principal axes and moments of inertia in atomic units:
                           1         2         3
     Eigenvalues --   786.310331634.005312398.01728
           X            0.99881  -0.04868  -0.00000
           Y            0.04868   0.99881   0.00000
           Z            0.00000  -0.00000   1.00000
 This molecule is an asymmetric top.
 Rotational symmetry number  1.
 Warning -- assumption of classical behavior for rotation
           may cause significant error
 Rotational temperatures (Kelvin)      0.11015     0.05301     0.03612
 Rotational constants (GHZ):           2.29520     1.10449     0.75260
 Zero-point vibrational energy     338706.5 (Joules/Mol)
                                   80.95279 (Kcal/Mol)
 Warning -- explicit consideration of  12 degrees of freedom as
           vibrations may cause significant error
 Vibrational temperatures:     65.70   127.03   133.39   226.61   280.07
          (Kelvin)            307.57   377.36   483.15   559.79   620.14
                              820.69   832.75   894.06   951.10   998.30
                             1092.64  1149.74  1241.07  1411.02  1443.54
                             1500.20  1518.53  1532.40  1691.48  1765.96
                             1884.04  1980.91  2022.81  2037.20  2046.96
                             2054.99  2105.89  2132.84  2140.58  2152.85
                             2266.22  2319.36  2358.33  4366.35  4383.53
                             4440.41  4486.40  4491.80  4540.00  5238.20

 Zero-point correction=                           0.129006 (Hartree/Particle)
 Thermal correction to Energy=                    0.138625
 Thermal correction to Enthalpy=                  0.139569
 Thermal correction to Gibbs Free Energy=         0.093274
 Sum of electronic and zero-point Energies=           -509.269640
 Sum of electronic and thermal Energies=              -509.260021
 Sum of electronic and thermal Enthalpies=            -509.259077
 Sum of electronic and thermal Free Energies=         -509.305373

                     E (Thermal)             CV                S
                      KCal/Mol        Cal/Mol-Kelvin    Cal/Mol-Kelvin
 Total                   86.989             33.762             97.438
 Electronic               0.000              0.000              0.000
 Translational            0.889              2.981             40.743
 Rotational               0.889              2.981             29.512
 Vibrational             85.211             27.800             27.183
 Vibration     1          0.595              1.979              4.997
 Vibration     2          0.601              1.957              3.698
 Vibration     3          0.602              1.954              3.602
 Vibration     4          0.621              1.894              2.580
 Vibration     5          0.635              1.847              2.183
 Vibration     6          0.644              1.820              2.011
 Vibration     7          0.670              1.742              1.647
 Vibration     8          0.717              1.604              1.232
 Vibration     9          0.757              1.494              1.004
 Vibration    10          0.792              1.403              0.855
 Vibration    11          0.927              1.095              0.503
 Vibration    12          0.935              1.077              0.488

 Normal termination of Gaussian 09 at Fri Aug 27 05:53:12 2021.

 -----------------------------------------------------------------
 #P Geom=AllCheck Guess=TCheck SCRF=Check CCSD(T,E4T,FrzG4)/GTBas1
 -----------------------------------------------------------------

 Structure from the checkpoint file:  "/public/home/users/caep010/.cache/gau_scr/Gau-25980.chk"
 ------
 LEKHUE
 ------
 Charge =  0 Multiplicity = 1

 SCF Done:  E(RHF) =  -506.365309781     A.U. after   15 cycles
 E2 =    -0.1509913347D+01 EUMP2 =    -0.50787522312803D+03
 CCSD(T)
 CCSD(T)= -0.50796682214D+03
 024219\CCSD(T)=-507.9668221\RMSD=8.060e-09\PG=C01 [X(C5H7N3O2)]\\@
 Normal termination of Gaussian 09 at Fri Aug 27 06:12:39 2021.

 ---------------------------------------------------------
 #P Geom=AllCheck Guess=TCheck SCRF=Check MP4=FrzG4/GTBas2
 ---------------------------------------------------------

 Structure from the checkpoint file:  "/public/home/users/caep010/.cache/gau_scr/Gau-25980.chk"
 ------
 LEKHUE
 ------
 Charge =  0 Multiplicity = 1

 SCF Done:  E(RHF) =  -506.378769686     A.U. after   14 cycles
 E2 =    -0.1529196021D+01 EUMP2 =    -0.50790796570641D+03
 Normal termination of Gaussian 09 at Fri Aug 27 06:21:14 2021.

 ---------------------------------------------------------
 #P Geom=AllCheck Guess=TCheck SCRF=Check MP4=FrzG4/GTBas3
 ---------------------------------------------------------

 Structure from the checkpoint file:  "/public/home/users/caep010/.cache/gau_scr/Gau-25980.chk"
 ------
 LEKHUE
 ------
 Charge =  0 Multiplicity = 1

 SCF Done:  E(RHF) =  -506.419609085     A.U. after   13 cycles
 E2 =    -0.1807491611D+01 EUMP2 =    -0.50822710069622D+03
 Normal termination of Gaussian 09 at Fri Aug 27 07:12:07 2021.

 -----------------------------------------------------------
 #P Geom=AllCheck Guess=TCheck SCRF=Check MP2=Full/GTLargeXP
 -----------------------------------------------------------

 Structure from the checkpoint file:  "/public/home/users/caep010/.cache/gau_scr/Gau-25980.chk"
 ------
 LEKHUE
 ------
 Charge =  0 Multiplicity = 1

 SCF Done:  E(RHF) =  -506.544184362     A.U. after   14 cycles
 E2 =    -0.2359466192D+01 EUMP2 =    -0.50890365055338D+03
 Normal termination of Gaussian 09 at Fri Aug 27 07:21:17 2021.
 SCF Done:  E(RHF) =  -506.583807515     A.U. after    9 cycles
 Normal termination of Gaussian 09 at Fri Aug 27 07:24:29 2021.

                         Standard orientation:
 ---------------------------------------------------------------------
 Center     Atomic      Atomic             Coordinates (Angstroms)
 Number     Number       Type             X           Y           Z
 ---------------------------------------------------------------------
      1          7           0        1.387683    1.011823    0.000053
      2          6           0        0.018226    1.082626    0.000075
      3          6           0       -0.354480   -0.246425   -0.000013
      4          6           0        1.767842   -0.313658   -0.000032
      5          6           0        3.192355   -0.752163   -0.000065
      6          1           0        3.728379   -0.390878    0.884838
      7          1           0        3.728361   -0.390793   -0.884921
      8          7           0       -1.707426   -0.728552   -0.000015
      9          8           0       -2.594254    0.131966   -0.000272
     10          8           0       -1.899527   -1.933834    0.000235
     11          7           0        0.716346   -1.094268   -0.000061
     12          1           0        2.005209    1.808598    0.000138
     13          6           0       -0.736667    2.366229    0.000089
     14          1           0       -1.386961    2.433635   -0.875847
     15          1           0       -1.389189    2.432207    0.874477
     16          1           0       -0.054441    3.221599    0.001572
     17          1           0        3.219026   -1.842093   -0.000114
 ---------------------------------------------------------------------

 SCF Done:  E(RHF) =  -506.591692357     A.U. after    8 cycles

 The electronic state is 1-A.
 Alpha  occ. eigenvalues --  -20.58540 -20.57627 -15.83780 -15.64770 -15.57140
 Alpha  occ. eigenvalues --  -11.32960 -11.31825 -11.30392 -11.25710 -11.25678
 Alpha  occ. eigenvalues --   -1.58606  -1.37871  -1.37782  -1.20787  -1.11125
 Alpha  occ. eigenvalues --   -1.01862  -1.01708  -0.91258  -0.83834  -0.80183
 Alpha  occ. eigenvalues --   -0.74845  -0.71535  -0.70976  -0.69099  -0.65033
 Alpha  occ. eigenvalues --   -0.62485  -0.60076  -0.60074  -0.57776  -0.56601
 Alpha  occ. eigenvalues --   -0.56187  -0.48366  -0.47951  -0.46701  -0.44042
 Alpha  occ. eigenvalues --   -0.43456  -0.33880
 Alpha virt. eigenvalues --    0.01737   0.02904   0.04335   0.04499   0.05799
 Alpha virt. eigenvalues --    0.06069   0.06286   0.06751   0.07617   0.08013
 Alpha virt. eigenvalues --    0.08290   0.08701   0.08910   0.10488   0.10751

 Mulliken charges:
               1
     1  N   -0.415236
     2  C    0.292830
     3  C    0.225550
     4  C    0.388559
     5  C   -0.608560
     6  H    0.198856
     7  H    0.198854
     8  N    0.481230
     9  O   -0.478388
    10  O   -0.398465
    11  N   -0.470193
    12  H    0.366770
    13  C   -0.610056
    14  H    0.223448
    15  H    0.223624
    16  H    0.156285
    17  H    0.224892
 Sum of Mulliken charges =  -0.00000

 Dipole moment (field-independent basis, Debye):
    X=              6.4838    Y=              5.5681    Z=              0.0002  Tot=              8.5465
 Quadrupole moment (field-independent basis, Debye-Ang):
   XX=            -58.1033   YY=            -58.0578   ZZ=            -57.8141
   XY=             -1.4626   XZ=             -0.0005   YZ=              0.0011

 Normal termination of Gaussian 09 at Fri Aug 27 07:48:37 2021.
