 Gaussian 09, Revision E.01,
 Gaussian 09:  ES64L-G09RevE.01 30-Nov-2015

 ----------------
 #P G4 OPT=calcfc
 ----------------

 ------
 LORNAI
 ------
 Symbolic Z-matrix:
 Charge =  0 Multiplicity = 1

 SCF Done:  E(RB3LYP) =  -607.520688041     A.U. after   16 cycles
 SCF Done:  E(RB3LYP) =  -607.608651069     A.U. after   15 cycles
 SCF Done:  E(RB3LYP) =  -607.643149988     A.U. after   17 cycles
 SCF Done:  E(RB3LYP) =  -607.629061661     A.U. after   17 cycles
 SCF Done:  E(RB3LYP) =  -607.651954900     A.U. after   13 cycles
 SCF Done:  E(RB3LYP) =  -607.653024183     A.U. after   17 cycles
 SCF Done:  E(RB3LYP) =  -607.653537701     A.U. after   14 cycles
 SCF Done:  E(RB3LYP) =  -607.653589485     A.U. after   13 cycles
 SCF Done:  E(RB3LYP) =  -607.653608771     A.U. after   11 cycles
 SCF Done:  E(RB3LYP) =  -607.653613493     A.U. after   10 cycles
 SCF Done:  E(RB3LYP) =  -607.653617890     A.U. after   10 cycles
 SCF Done:  E(RB3LYP) =  -607.653619415     A.U. after    9 cycles
 SCF Done:  E(RB3LYP) =  -607.653620092     A.U. after    9 cycles
 Optimization completed.
    -- Stationary point found.
 Normal termination of Gaussian 09 at Thu Aug 26 22:09:04 2021.

 ----------------------------------------------------------
 #P Geom=AllCheck Guess=TCheck SCRF=Check B3LYP/GTBas3 Freq
 ----------------------------------------------------------

 Structure from the checkpoint file:  "/public/home/users/caep010/.cache/gau_scr/Gau-110239.chk"
 ------
 LORNAI
 ------
 Charge =  0 Multiplicity = 1

 SCF Done:  E(RB3LYP) =  -607.653620092     A.U. after    1 cycles

  Exact polarizability: 152.751   3.479 123.382  -1.370   1.063  58.770
 Approx polarizability: 234.266   8.367 221.599  -5.893  10.614 102.329

                      1                      2                      3
                      A                      A                      A
 Frequencies --     41.5807                55.1783               109.9083
 Red. masses --      6.5204                 4.4811                 2.2865
 Frc consts  --      0.0066                 0.0080                 0.0163
 IR Inten    --      9.6864                 0.3262                 0.7479

                      4                      5                      6
                      A                      A                      A
 Frequencies --    125.3847               128.2564               199.7565
 Red. masses --      2.8885                 2.8819                 3.6911
 Frc consts  --      0.0268                 0.0279                 0.0868
 IR Inten    --      3.0720                 6.5937                 2.3724

                      7                      8                      9
                      A                      A                      A
 Frequencies --    226.2511               251.0221               334.2406
 Red. masses --      7.6444                 3.1951                 4.2952
 Frc consts  --      0.2306                 0.1186                 0.2827
 IR Inten    --      0.7651                 3.2148                 1.0965

                     10                     11                     12
                      A                      A                      A
 Frequencies --    365.8329               386.8093               403.9211
 Red. masses --      6.3738                 3.2926                 4.1174
 Frc consts  --      0.5026                 0.2903                 0.3958
 IR Inten    --      2.5967                 0.1839                 0.9724

                     13                     14                     15
                      A                      A                      A
 Frequencies --    436.7747               497.6828               514.3874
 Red. masses --      7.1671                 4.4393                 3.3454
 Frc consts  --      0.8056                 0.6478                 0.5215
 IR Inten    --      3.1701                 2.1785                 0.2868

                     16                     17                     18
                      A                      A                      A
 Frequencies --    548.5988               604.8500               673.0668
 Red. masses --      5.5487                 5.2461                 6.5538
 Frc consts  --      0.9839                 1.1308                 1.7493
 IR Inten    --      0.3311                 1.2070                 6.7106

                     19                     20                     21
                      A                      A                      A
 Frequencies --    719.1669               764.4002               796.5760
 Red. masses --      3.7095                 2.2862                 5.3688
 Frc consts  --      1.1304                 0.7871                 2.0072
 IR Inten    --      0.6593                27.6865                19.9306

                     22                     23                     24
                      A                      A                      A
 Frequencies --    820.5602               833.5962               894.2250
 Red. masses --      5.0323                 2.0924                 5.6150
 Frc consts  --      1.9964                 0.8567                 2.6454
 IR Inten    --      4.7630                 7.1094                16.2949

                     25                     26                     27
                      A                      A                      A
 Frequencies --    926.6272               967.8979               969.2733
 Red. masses --      1.5409                 1.7073                 2.6125
 Frc consts  --      0.7795                 0.9424                 1.4461
 IR Inten    --      1.9906                 0.7386                 4.7264

                     28                     29                     30
                      A                      A                      A
 Frequencies --    987.2221              1050.8891              1056.5078
 Red. masses --      1.3921                 1.7034                 1.6280
 Frc consts  --      0.7994                 1.1083                 1.0707
 IR Inten    --      1.5754                 2.7816                 3.5549

                     31                     32                     33
                      A                      A                      A
 Frequencies --   1108.6653              1171.0331              1195.8339
 Red. masses --      2.2028                 3.3794                 1.3120
 Frc consts  --      1.5952                 2.7304                 1.1054
 IR Inten    --      4.7126                 8.2576                 4.1791

                     34                     35                     36
                      A                      A                      A
 Frequencies --   1224.2032              1237.9696              1274.3904
 Red. masses --      2.5762                 1.0996                 1.8819
 Frc consts  --      2.2748                 0.9929                 1.8008
 IR Inten    --      8.8251                 0.2997                 0.9799

                     37                     38                     39
                      A                      A                      A
 Frequencies --   1304.4453              1352.8178              1395.6478
 Red. masses --      2.4809                 2.6155                12.1036
 Frc consts  --      2.4872                 2.8203                13.8904
 IR Inten    --      8.4078                 3.3591               233.5320

                     40                     41                     42
                      A                      A                      A
 Frequencies --   1421.3775              1453.7338              1466.2673
 Red. masses --      1.1946                 1.1585                 1.3674
 Frc consts  --      1.4220                 1.4425                 1.7321
 IR Inten    --      3.1897                 3.7908                 7.4008

                     43                     44                     45
                      A                      A                      A
 Frequencies --   1480.5891              1495.0036              1503.7190
 Red. masses --      1.8799                 1.3094                 1.6118
 Frc consts  --      2.4280                 1.7243                 2.1473
 IR Inten    --     15.5876                 6.5251                14.4498

                     46                     47                     48
                      A                      A                      A
 Frequencies --   1610.6888              1620.8157              1655.6217
 Red. masses --      6.4035                 7.8538                 8.1459
 Frc consts  --      9.7880                12.1562                13.1557
 IR Inten    --     19.5526               163.1440                63.3981

                     49                     50                     51
                      A                      A                      A
 Frequencies --   2367.0267              3031.5363              3048.8246
 Red. masses --     12.6246                 1.0609                 1.0456
 Frc consts  --     41.6747                 5.7445                 5.7262
 IR Inten    --      6.7176                 2.3093                 9.5125

                     52                     53                     54
                      A                      A                      A
 Frequencies --   3065.2969              3112.0819              3164.7544
 Red. masses --      1.0980                 1.0936                 1.0969
 Frc consts  --      6.0784                 6.2404                 6.4728
 IR Inten    --      1.0409                16.2491                 4.9174

                     55                     56                     57
                      A                      A                      A
 Frequencies --   3192.7897              3206.6601              3234.1079
 Red. masses --      1.0870                 1.0937                 1.0931
 Frc consts  --      6.5285                 6.6258                 6.7361
 IR Inten    --      1.5096                 3.5990                 1.2750

 - Thermochemistry -
 -------------------
 Temperature   298.150 Kelvin.  Pressure   1.00000 Atm.
 Atom     1 has atomic number  8 and mass  15.99491

 Molecular mass:   176.05858 amu.
 Principal axes and moments of inertia in atomic units:
                           1         2         3
     Eigenvalues --   970.179923762.899754639.36377
           X            0.99999  -0.00476   0.00099
           Y            0.00477   0.99993  -0.01112
           Z           -0.00094   0.01113   0.99994
 This molecule is an asymmetric top.
 Rotational symmetry number  1.
 Warning -- assumption of classical behavior for rotation
           may cause significant error
 Rotational temperatures (Kelvin)      0.08928     0.02302     0.01867
 Rotational constants (GHZ):           1.86021     0.47961     0.38901
 Zero-point vibrational energy     413228.1 (Joules/Mol)
                                   98.76389 (Kcal/Mol)
 Warning -- explicit consideration of  17 degrees of freedom as
           vibrations may cause significant error
 Vibrational temperatures:     59.83    79.39   158.13   180.40   184.53
          (Kelvin)            287.40   325.52   361.16   480.90   526.35
                              556.53   581.15   628.42   716.05   740.09
                              789.31   870.24   968.39  1034.72  1099.80
                             1146.09  1180.60  1199.36  1286.59  1333.21
                             1392.59  1394.57  1420.39  1511.99  1520.08
                             1595.12  1684.85  1720.54  1761.35  1781.16
                             1833.56  1876.80  1946.40  2008.02  2045.04
                             2091.60  2109.63  2130.23  2150.97  2163.51
                             2317.42  2331.99  2382.07  3405.62  4361.70
                             4386.57  4410.27  4477.59  4553.37  4593.71
                             4613.66  4653.15

 Zero-point correction=                           0.157390 (Hartree/Particle)
 Thermal correction to Energy=                    0.168963
 Thermal correction to Enthalpy=                  0.169907
 Thermal correction to Gibbs Free Energy=         0.118856
 Sum of electronic and zero-point Energies=           -607.496230
 Sum of electronic and thermal Energies=              -607.484658
 Sum of electronic and thermal Enthalpies=            -607.483713
 Sum of electronic and thermal Free Energies=         -607.534764

                     E (Thermal)             CV                S
                      KCal/Mol        Cal/Mol-Kelvin    Cal/Mol-Kelvin
 Total                  106.026             42.603            107.445
 Electronic               0.000              0.000              0.000
 Translational            0.889              2.981             41.404
 Rotational               0.889              2.981             31.205
 Vibrational            104.248             36.642             34.836
 Vibration     1          0.594              1.981              5.182
 Vibration     2          0.596              1.976              4.623
 Vibration     3          0.606              1.941              3.271
 Vibration     4          0.610              1.928              3.016
 Vibration     5          0.611              1.925              2.972
 Vibration     6          0.638              1.840              2.135
 Vibration     7          0.650              1.801              1.908
 Vibration     8          0.663              1.761              1.723
 Vibration     9          0.716              1.607              1.240
 Vibration    10          0.739              1.543              1.097
 Vibration    11          0.755              1.498              1.012
 Vibration    12          0.769              1.462              0.948
 Vibration    13          0.797              1.390              0.837
 Vibration    14          0.853              1.255              0.664
 Vibration    15          0.869              1.218              0.623
 Vibration    16          0.904              1.143              0.547
 Vibration    17          0.963              1.022              0.441

 Optimization completed.
    -- Stationary point found.
 Normal termination of Gaussian 09 at Thu Aug 26 22:12:11 2021.

 -----------------------------------------------------------------
 #P Geom=AllCheck Guess=TCheck SCRF=Check CCSD(T,E4T,FrzG4)/GTBas1
 -----------------------------------------------------------------

 Structure from the checkpoint file:  "/public/home/users/caep010/.cache/gau_scr/Gau-110239.chk"
 ------
 LORNAI
 ------
 Charge =  0 Multiplicity = 1

 SCF Done:  E(RHF) =  -603.962019457     A.U. after   15 cycles
 E2 =    -0.1846481334D+01 EUMP2 =    -0.60580850079124D+03
 CCSD(T)
 CCSD(T)= -0.60593109804D+03
 MP4SDTQ=-605.9476948\MP4SDQ=-605.849715\CCSD=-605.8456716\CCSD(T)=-605
 Normal termination of Gaussian 09 at Thu Aug 26 23:42:42 2021.

 ---------------------------------------------------------
 #P Geom=AllCheck Guess=TCheck SCRF=Check MP4=FrzG4/GTBas2
 ---------------------------------------------------------

 Structure from the checkpoint file:  "/public/home/users/caep010/.cache/gau_scr/Gau-110239.chk"
 ------
 LORNAI
 ------
 Charge =  0 Multiplicity = 1

 SCF Done:  E(RHF) =  -603.977295703     A.U. after   18 cycles
 E2 =    -0.1868084606D+01 EUMP2 =    -0.60584538030861D+03
 Normal termination of Gaussian 09 at Fri Aug 27 00:15:57 2021.

 ---------------------------------------------------------
 #P Geom=AllCheck Guess=TCheck SCRF=Check MP4=FrzG4/GTBas3
 ---------------------------------------------------------

 Structure from the checkpoint file:  "/public/home/users/caep010/.cache/gau_scr/Gau-110239.chk"
 ------
 LORNAI
 ------
 Charge =  0 Multiplicity = 1

 SCF Done:  E(RHF) =  -604.020692552     A.U. after   12 cycles
 E2 =    -0.2197186716D+01 EUMP2 =    -0.60621787926723D+03
 Normal termination of Gaussian 09 at Fri Aug 27 05:04:29 2021.

 -----------------------------------------------------------
 #P Geom=AllCheck Guess=TCheck SCRF=Check MP2=Full/GTLargeXP
 -----------------------------------------------------------

 Structure from the checkpoint file:  "/public/home/users/caep010/.cache/gau_scr/Gau-110239.chk"
 ------
 LORNAI
 ------
 Charge =  0 Multiplicity = 1

 SCF Done:  E(RHF) =  -604.161353231     A.U. after   14 cycles
 E2 =    -0.2891180937D+01 EUMP2 =    -0.60705253416767D+03
 Normal termination of Gaussian 09 at Fri Aug 27 05:19:00 2021.
 SCF Done:  E(RHF) =  -604.208851095     A.U. after   10 cycles
 Normal termination of Gaussian 09 at Fri Aug 27 05:26:52 2021.

                         Standard orientation:
 ---------------------------------------------------------------------
 Center     Atomic      Atomic             Coordinates (Angstroms)
 Number     Number       Type             X           Y           Z
 ---------------------------------------------------------------------
      1          8           0       -2.896066   -1.222056   -0.595481
      2          7           0       -2.659882   -0.148006   -0.054550
      3          8           0       -3.509624    0.593919    0.419882
      4          6           0       -1.256312    0.307243    0.001218
      5          6           0       -0.195934   -0.607839    0.078110
      6          6           0       -0.392727   -2.100279    0.199087
      7          1           0        0.412409   -2.555158    0.779862
      8          6           0        1.103373   -0.057961    0.067162
      9          6           0        2.302096   -1.000484    0.138669
     10          1           0        2.320428   -1.526290    1.101927
     11          6           0        3.597120   -0.346102   -0.031256
     12          1           0        2.218771   -1.781772   -0.625867
     13          1           0       -0.406690   -2.576723   -0.787654
     14          1           0       -1.338697   -2.351304    0.674333
     15          7           0        4.623642    0.167218   -0.162300
     16          6           0       -1.073574    1.686314   -0.047376
     17          1           0       -1.944758    2.326236   -0.083241
     18          6           0        0.213627    2.194657   -0.061590
     19          1           0        0.378319    3.264439   -0.116102
     20          6           0        1.294808    1.320479   -0.009573
     21          1           0        2.304552    1.715026   -0.027228
 ---------------------------------------------------------------------

 SCF Done:  E(RHF) =  -604.217733583     A.U. after    8 cycles

 The electronic state is 1-A.
 Alpha  occ. eigenvalues --  -20.60816 -20.60785 -15.85989 -15.58575 -11.32023
 Alpha  occ. eigenvalues --  -11.30999 -11.30156 -11.29131 -11.29049 -11.27918
 Alpha  occ. eigenvalues --  -11.27577 -11.26784 -11.25372  -1.61310  -1.40686
 Alpha  occ. eigenvalues --   -1.23921  -1.21464  -1.12415  -1.09694  -1.03965
 Alpha  occ. eigenvalues --   -0.98545  -0.94574  -0.84828  -0.84174  -0.77978
 Alpha  occ. eigenvalues --   -0.73982  -0.73322  -0.71576  -0.70216  -0.66388
 Alpha  occ. eigenvalues --   -0.66013  -0.64186  -0.61389  -0.60093  -0.58705
 Alpha  occ. eigenvalues --   -0.57057  -0.55594  -0.53768  -0.53360  -0.50414
 Alpha  occ. eigenvalues --   -0.49710  -0.47803  -0.47720  -0.46068  -0.38255
 Alpha  occ. eigenvalues --   -0.36666
 Alpha virt. eigenvalues --    0.02759   0.03293   0.03645   0.04168   0.04262
 Alpha virt. eigenvalues --    0.05272   0.05708   0.06081   0.06301   0.06971
 Alpha virt. eigenvalues --    0.07532   0.07674   0.08095   0.08554   0.08921

 Mulliken charges:
               1
     1  O   -0.417720
     2  N    0.487788
     3  O   -0.429128
     4  C    0.123847
     5  C    0.199530
     6  C   -0.720448
     7  H    0.184844
     8  C    0.180698
     9  C   -0.337014
    10  H    0.227948
    11  C    0.166623
    12  H    0.231871
    13  H    0.210981
    14  H    0.215376
    15  N   -0.433726
    16  C   -0.212566
    17  H    0.254283
    18  C   -0.187565
    19  H    0.228234
    20  C   -0.219802
    21  H    0.245946
 Sum of Mulliken charges =  -0.00000

 Dipole moment (field-independent basis, Debye):
    X=              0.7965    Y=             -0.6179    Z=              0.6122  Tot=              1.1795
 Quadrupole moment (field-independent basis, Debye-Ang):
   XX=           -114.2768   YY=            -66.0990   ZZ=            -76.8903
   XY=             -7.1827   XZ=              1.8947   YZ=             -2.5266

 Normal termination of Gaussian 09 at Fri Aug 27 06:18:53 2021.
