 Gaussian 09, Revision E.01,
 Gaussian 09:  ES64L-G09RevE.01 30-Nov-2015

 ----------------
 #P G4 OPT=calcfc
 ----------------

 ------
 MENOIM
 ------
 Symbolic Z-matrix:
 Charge =  0 Multiplicity = 1

 SCF Done:  E(RB3LYP) =  -469.891401022     A.U. after   16 cycles
 SCF Done:  E(RB3LYP) =  -470.011058802     A.U. after   14 cycles
 SCF Done:  E(RB3LYP) =  -470.068014735     A.U. after   15 cycles
 SCF Done:  E(RB3LYP) =  -470.072177769     A.U. after   15 cycles
 SCF Done:  E(RB3LYP) =  -470.072314598     A.U. after   13 cycles
 SCF Done:  E(RB3LYP) =  -470.072686028     A.U. after   15 cycles
 SCF Done:  E(RB3LYP) =  -470.072892222     A.U. after   13 cycles
 SCF Done:  E(RB3LYP) =  -470.072931223     A.U. after   10 cycles
 SCF Done:  E(RB3LYP) =  -470.072982841     A.U. after   10 cycles
 SCF Done:  E(RB3LYP) =  -470.072990300     A.U. after   10 cycles
 Optimization completed.
    -- Stationary point found.
 Normal termination of Gaussian 09 at Fri Aug 27 06:15:19 2021.

 ----------------------------------------------------------
 #P Geom=AllCheck Guess=TCheck SCRF=Check B3LYP/GTBas3 Freq
 ----------------------------------------------------------

 Structure from the checkpoint file:  "/public/home/users/caep010/.cache/gau_scr/Gau-166315.chk"
 ------
 MENOIM
 ------
 Charge =  0 Multiplicity = 1

 SCF Done:  E(RB3LYP) =  -470.072990300     A.U. after    1 cycles

  Exact polarizability:  98.019   0.288  74.114   0.004   0.000  36.830
 Approx polarizability: 141.226   3.885 148.897   0.003   0.004  58.113

                      1                      2                      3
                      A                      A                      A
 Frequencies --     73.9619                78.0889               165.8723
 Red. masses --      4.7252                 1.1463                 5.1425
 Frc consts  --      0.0152                 0.0041                 0.0834
 IR Inten    --      1.9216                 0.3063                 2.6094

                      4                      5                      6
                      A                      A                      A
 Frequencies --    191.0474               301.0763               354.3118
 Red. masses --      5.4126                 4.3137                 3.3975
 Frc consts  --      0.1164                 0.2304                 0.2513
 IR Inten    --      0.0258                 3.4843                 5.1070

                      7                      8                      9
                      A                      A                      A
 Frequencies --    424.5863               550.2744               580.4650
 Red. masses --      8.7399                 6.4051                 1.6493
 Frc consts  --      0.9283                 1.1427                 0.3274
 IR Inten    --      0.2722                 0.8164                59.8163

                     10                     11                     12
                      A                      A                      A
 Frequencies --    639.9975               695.7990               702.2390
 Red. masses --      2.4261                 3.5723                 4.8516
 Frc consts  --      0.5855                 1.0190                 1.4096
 IR Inten    --     24.6331                 0.1412                 2.3100

                     13                     14                     15
                      A                      A                      A
 Frequencies --    769.2193               824.0573               839.6450
 Red. masses --      2.0551                 2.9672                12.2085
 Frc consts  --      0.7164                 1.1872                 5.0711
 IR Inten    --     24.8525                 1.8960                50.5294

                     16                     17                     18
                      A                      A                      A
 Frequencies --    962.3412              1000.0897              1044.6636
 Red. masses --      1.8417                 6.9500                 2.5075
 Frc consts  --      1.0049                 4.0955                 1.6123
 IR Inten    --      0.9180                 2.0423                 1.5734

                     19                     20                     21
                      A                      A                      A
 Frequencies --   1064.1360              1104.6685              1227.2253
 Red. masses --      1.5045                 1.4059                 2.1131
 Frc consts  --      1.0038                 1.0108                 1.8751
 IR Inten    --      1.5636                41.5435                 0.6528

                     22                     23                     24
                      A                      A                      A
 Frequencies --   1304.8706              1386.5734              1401.3699
 Red. masses --      6.3235                 3.8948                 3.7449
 Frc consts  --      6.3437                 4.4119                 4.3330
 IR Inten    --     27.2679                43.0249               188.2175

                     25                     26                     27
                      A                      A                      A
 Frequencies --   1413.8625              1429.5537              1481.5758
 Red. masses --      1.5608                 3.6357                 1.0422
 Frc consts  --      1.8382                 4.3777                 1.3479
 IR Inten    --     18.4820                67.3867                 7.5360

                     28                     29                     30
                      A                      A                      A
 Frequencies --   1489.5119              1557.2688              1602.8226
 Red. masses --      1.2184                 5.3594                 5.1383
 Frc consts  --      1.5927                 7.6576                 7.7774
 IR Inten    --      9.9851                42.2402                36.6106

                     31                     32                     33
                      A                      A                      A
 Frequencies --   1636.9600              3036.3058              3088.6541
 Red. masses --     12.7205                 1.0398                 1.1002
 Frc consts  --     20.0830                 5.6481                 6.1840
 IR Inten    --    233.0035                19.5093                11.5468

                     34                     35                     36
                      A                      A                      A
 Frequencies --   3157.6662              3307.2902              3645.8996
 Red. masses --      1.0973                 1.1001                 1.0810
 Frc consts  --      6.4461                 7.0897                 8.4659
 IR Inten    --      1.2326                 5.8586                65.2431

 - Thermochemistry -
 -------------------
 Temperature   298.150 Kelvin.  Pressure   1.00000 Atm.
 Atom     1 has atomic number  8 and mass  15.99491

 Molecular mass:   127.03818 amu.
 Principal axes and moments of inertia in atomic units:
                           1         2         3
     Eigenvalues --   410.168041613.785452012.67635
           X            0.99987  -0.01602   0.00001
           Y            0.01602   0.99987  -0.00001
           Z           -0.00001   0.00001   1.00000
 This molecule is an asymmetric top.
 Rotational symmetry number  1.
 Rotational temperatures (Kelvin)      0.21117     0.05367     0.04303
 Rotational constants (GHZ):           4.40000     1.11833     0.89669
 Zero-point vibrational energy     266372.2 (Joules/Mol)
                                   63.66448 (Kcal/Mol)
 Warning -- explicit consideration of   9 degrees of freedom as
           vibrations may cause significant error
 Vibrational temperatures:    106.41   112.35   238.65   274.87   433.18
          (Kelvin)            509.77   610.88   791.72   835.16   920.81
                             1001.10  1010.36  1106.73  1185.63  1208.06
                             1384.59  1438.90  1503.04  1531.05  1589.37
                             1765.70  1877.42  1994.97  2016.26  2034.23
                             2056.81  2131.65  2143.07  2240.56  2306.10
                             2355.22  4368.56  4443.88  4543.17  4758.45
                             5245.63

 Zero-point correction=                           0.101456 (Hartree/Particle)
 Thermal correction to Energy=                    0.109296
 Thermal correction to Enthalpy=                  0.110240
 Thermal correction to Gibbs Free Energy=         0.068214
 Sum of electronic and zero-point Energies=           -469.971534
 Sum of electronic and thermal Energies=              -469.963694
 Sum of electronic and thermal Enthalpies=            -469.962750
 Sum of electronic and thermal Free Energies=         -470.004776

                     E (Thermal)             CV                S
                      KCal/Mol        Cal/Mol-Kelvin    Cal/Mol-Kelvin
 Total                   68.584             27.789             88.451
 Electronic               0.000              0.000              0.000
 Translational            0.889              2.981             40.431
 Rotational               0.889              2.981             28.679
 Vibrational             66.807             21.827             19.341
 Vibration     1          0.599              1.966              4.045
 Vibration     2          0.599              1.964              3.938
 Vibration     3          0.624              1.884              2.482
 Vibration     4          0.634              1.852              2.218
 Vibration     5          0.693              1.672              1.411
 Vibration     6          0.730              1.566              1.147
 Vibration     7          0.787              1.417              0.877
 Vibration     8          0.906              1.139              0.544
 Vibration     9          0.937              1.074              0.485

 Normal termination of Gaussian 09 at Fri Aug 27 06:16:17 2021.

 -----------------------------------------------------------------
 #P Geom=AllCheck Guess=TCheck SCRF=Check CCSD(T,E4T,FrzG4)/GTBas1
 -----------------------------------------------------------------

 Structure from the checkpoint file:  "/public/home/users/caep010/.cache/gau_scr/Gau-166315.chk"
 ------
 MENOIM
 ------
 Charge =  0 Multiplicity = 1

 SCF Done:  E(RHF) =  -467.323450294     A.U. after   15 cycles
 E2 =    -0.1377075593D+01 EUMP2 =    -0.46870052588621D+03
 CCSD(T)
 CCSD(T)= -0.46877679291D+03
 9\CCSD=-468.7172669\CCSD(T)=-468.7767929\RMSD=6.149e-09\PG=C01 [X(C4H5
 Normal termination of Gaussian 09 at Fri Aug 27 06:26:33 2021.

 ---------------------------------------------------------
 #P Geom=AllCheck Guess=TCheck SCRF=Check MP4=FrzG4/GTBas2
 ---------------------------------------------------------

 Structure from the checkpoint file:  "/public/home/users/caep010/.cache/gau_scr/Gau-166315.chk"
 ------
 MENOIM
 ------
 Charge =  0 Multiplicity = 1

 SCF Done:  E(RHF) =  -467.337043077     A.U. after   14 cycles
 E2 =    -0.1395047505D+01 EUMP2 =    -0.46873209058171D+03
 Normal termination of Gaussian 09 at Fri Aug 27 06:29:33 2021.

 ---------------------------------------------------------
 #P Geom=AllCheck Guess=TCheck SCRF=Check MP4=FrzG4/GTBas3
 ---------------------------------------------------------

 Structure from the checkpoint file:  "/public/home/users/caep010/.cache/gau_scr/Gau-166315.chk"
 ------
 MENOIM
 ------
 Charge =  0 Multiplicity = 1

 SCF Done:  E(RHF) =  -467.372977194     A.U. after   13 cycles
 E2 =    -0.1641847117D+01 EUMP2 =    -0.46901482431069D+03
 Normal termination of Gaussian 09 at Fri Aug 27 06:51:53 2021.

 -----------------------------------------------------------
 #P Geom=AllCheck Guess=TCheck SCRF=Check MP2=Full/GTLargeXP
 -----------------------------------------------------------

 Structure from the checkpoint file:  "/public/home/users/caep010/.cache/gau_scr/Gau-166315.chk"
 ------
 MENOIM
 ------
 Charge =  0 Multiplicity = 1

 SCF Done:  E(RHF) =  -467.490843851     A.U. after   14 cycles
 E2 =    -0.2141355353D+01 EUMP2 =    -0.46963219920447D+03
 Normal termination of Gaussian 09 at Fri Aug 27 06:58:21 2021.
 SCF Done:  E(RHF) =  -467.527600015     A.U. after    9 cycles
 Normal termination of Gaussian 09 at Fri Aug 27 07:03:24 2021.

                         Standard orientation:
 ---------------------------------------------------------------------
 Center     Atomic      Atomic             Coordinates (Angstroms)
 Number     Number       Type             X           Y           Z
 ---------------------------------------------------------------------
      1          8           0       -2.169913   -1.408691   -0.000097
      2          7           0       -1.850653   -0.231255    0.000020
      3          8           0       -2.628819    0.722847    0.000136
      4          6           0       -0.445780    0.097892    0.000027
      5          7           0        0.534387   -0.848941   -0.000039
      6          6           0        1.660181   -0.173168   -0.000095
      7          7           0        1.414919    1.182370   -0.000110
      8          6           0        0.060444    1.371497    0.000004
      9          6           0        3.033177   -0.753411    0.000077
     10          1           0        2.109046    1.913079   -0.000139
     11          1           0       -0.412192    2.337133   -0.000082
     12          1           0        2.949938   -1.840282   -0.001193
     13          1           0        3.602677   -0.446585   -0.884106
     14          1           0        3.601677   -0.448665    0.886033
 ---------------------------------------------------------------------

 SCF Done:  E(RHF) =  -467.534875281     A.U. after    8 cycles

 The electronic state is 1-A.
 Alpha  occ. eigenvalues --  -20.59237 -20.58298 -15.84394 -15.65491 -15.57772
 Alpha  occ. eigenvalues --  -11.33742 -11.31556 -11.31139 -11.26113  -1.59337
 Alpha  occ. eigenvalues --   -1.38660  -1.38340  -1.21223  -1.10499  -1.02146
 Alpha  occ. eigenvalues --   -0.95200  -0.84610  -0.81143  -0.77486  -0.72064
 Alpha  occ. eigenvalues --   -0.71411  -0.70480  -0.65124  -0.65065  -0.60360
 Alpha  occ. eigenvalues --   -0.58220  -0.57697  -0.48979  -0.48548  -0.47658
 Alpha  occ. eigenvalues --   -0.44634  -0.43946  -0.35303
 Alpha virt. eigenvalues --    0.01582   0.02960   0.04322   0.04988   0.05778
 Alpha virt. eigenvalues --    0.06000   0.06739   0.06986   0.07776   0.08121
 Alpha virt. eigenvalues --    0.08717   0.09676   0.10582   0.10690   0.11620

 Mulliken charges:
               1
     1  O   -0.385398
     2  N    0.488620
     3  O   -0.458733
     4  C    0.233487
     5  N   -0.454996
     6  C    0.387291
     7  N   -0.383683
     8  C   -0.103996
     9  C   -0.599640
    10  H    0.373913
    11  H    0.276002
    12  H    0.225664
    13  H    0.200725
    14  H    0.200745
 Sum of Mulliken charges =  -0.00000

 Dipole moment (field-independent basis, Debye):
    X=              7.3616    Y=              4.1393    Z=             -0.0002  Tot=              8.4455
 Quadrupole moment (field-independent basis, Debye-Ang):
   XX=            -52.2402   YY=            -49.6998   ZZ=            -51.7686
   XY=              1.6828   XZ=             -0.0000   YZ=             -0.0010

 Normal termination of Gaussian 09 at Fri Aug 27 07:20:03 2021.
