 Gaussian 09, Revision E.01,
 Gaussian 09:  ES64L-G09RevE.01 30-Nov-2015

 ----------------
 #P G4 OPT=calcfc
 ----------------

 ------
 MADKOT
 ------
 Symbolic Z-matrix:
 Charge =  0 Multiplicity = 1

 SCF Done:  E(RB3LYP) =  -645.803527954     A.U. after   14 cycles
 SCF Done:  E(RB3LYP) =  -645.916223623     A.U. after   12 cycles
 SCF Done:  E(RB3LYP) =  -645.986197486     A.U. after   13 cycles
 SCF Done:  E(RB3LYP) =  -645.988169326     A.U. after   13 cycles
 SCF Done:  E(RB3LYP) =  -645.988358612     A.U. after   13 cycles
 SCF Done:  E(RB3LYP) =  -645.988367608     A.U. after   10 cycles
 SCF Done:  E(RB3LYP) =  -645.988368180     A.U. after   10 cycles
 SCF Done:  E(RB3LYP) =  -645.988368579     A.U. after    8 cycles
 SCF Done:  E(RB3LYP) =  -645.988368756     A.U. after    7 cycles
 Optimization completed.
    -- Stationary point found.
 Normal termination of Gaussian 09 at Wed Aug 25 05:36:42 2021.

 ----------------------------------------------------------
 #P Geom=AllCheck Guess=TCheck SCRF=Check B3LYP/GTBas3 Freq
 ----------------------------------------------------------

 Structure from the checkpoint file:  "/public/home/users/caep010/.cache/gau_scr/Gau-7785.chk"
 ------
 MADKOT
 ------
 Charge =  0 Multiplicity = 1

 SCF Done:  E(RB3LYP) =  -645.988368756     A.U. after    1 cycles

  Exact polarizability: 133.877  -5.679  99.491   4.808  16.164  83.964
 Approx polarizability: 192.432 -14.796 170.627   8.978  46.216 153.979

                      1                      2                      3
                      A                      A                      A
 Frequencies --     41.9255                46.4838                60.8207
 Red. masses --      4.9098                 4.9467                 7.5199
 Frc consts  --      0.0051                 0.0063                 0.0164
 IR Inten    --      0.4764                 2.4648                 0.5475

                      4                      5                      6
                      A                      A                      A
 Frequencies --     83.8299               181.3101               213.3966
 Red. masses --      6.1199                 6.0013                 4.2972
 Frc consts  --      0.0253                 0.1162                 0.1153
 IR Inten    --      3.8701                 2.7384                 0.3223

                      7                      8                      9
                      A                      A                      A
 Frequencies --    229.0332               244.8892               281.2465
 Red. masses --      1.5270                 2.0092                 3.6071
 Frc consts  --      0.0472                 0.0710                 0.1681
 IR Inten    --      2.1439                 1.0157                 1.1953

                     10                     11                     12
                      A                      A                      A
 Frequencies --    291.8934               308.7533               359.6842
 Red. masses --      1.3848                 2.6902                 5.1370
 Frc consts  --      0.0695                 0.1511                 0.3916
 IR Inten    --     84.4385                25.4507                 9.3925

                     13                     14                     15
                      A                      A                      A
 Frequencies --    389.4918               487.3078               525.0104
 Red. masses --      2.5879                 4.9408                 5.8128
 Frc consts  --      0.2313                 0.6913                 0.9440
 IR Inten    --      0.1962                13.9912                 4.7373

                     16                     17                     18
                      A                      A                      A
 Frequencies --    566.9863               619.0945               680.2148
 Red. masses --      3.5856                 5.4145                 6.9597
 Frc consts  --      0.6791                 1.2227                 1.8973
 IR Inten    --     19.0418                35.7622                 0.8320

                     19                     20                     21
                      A                      A                      A
 Frequencies --    697.9396               742.8363               776.6029
 Red. masses --      4.1732                 6.3216                 3.4930
 Frc consts  --      1.1977                 2.0552                 1.2412
 IR Inten    --      0.5954                 0.0604                 0.1677

                     22                     23                     24
                      A                      A                      A
 Frequencies --    841.7405               866.7914               884.3890
 Red. masses --      1.5114                 4.1238                 3.4058
 Frc consts  --      0.6309                 1.8255                 1.5695
 IR Inten    --     22.8081                 9.1224                29.8048

                     25                     26                     27
                      A                      A                      A
 Frequencies --    906.5830               915.7013               993.7602
 Red. masses --      1.2504                 2.0119                 1.3420
 Frc consts  --      0.6055                 0.9939                 0.7808
 IR Inten    --      0.1781                 7.6653                 0.5346

                     28                     29                     30
                      A                      A                      A
 Frequencies --   1006.7194              1009.4386              1047.8496
 Red. masses --      1.6044                 4.8488                 2.7426
 Frc consts  --      0.9580                 2.9110                 1.7742
 IR Inten    --      0.6001                 3.4705                16.5721

                     31                     32                     33
                      A                      A                      A
 Frequencies --   1068.7918              1091.4946              1100.7085
 Red. masses --      2.4532                 1.8845                 1.6993
 Frc consts  --      1.6511                 1.3228                 1.2130
 IR Inten    --     60.3970                 1.6694                 1.3425

                     34                     35                     36
                      A                      A                      A
 Frequencies --   1123.5325              1136.6984              1220.4507
 Red. masses --      1.8957                 2.0231                 2.4201
 Frc consts  --      1.4099                 1.5401                 2.1239
 IR Inten    --      4.7854                11.0927                 5.3423

                     37                     38                     39
                      A                      A                      A
 Frequencies --   1246.7479              1249.8820              1284.3255
 Red. masses --      1.3588                 1.5134                 2.9197
 Frc consts  --      1.2444                 1.3929                 2.8375
 IR Inten    --      3.4066                 6.4641                24.2086

                     40                     41                     42
                      A                      A                      A
 Frequencies --   1303.8524              1329.2625              1341.1813
 Red. masses --      1.4925                 1.6555                 1.3950
 Frc consts  --      1.4950                 1.7235                 1.4784
 IR Inten    --     29.8483                25.9851                 6.6458

                     43                     44                     45
                      A                      A                      A
 Frequencies --   1372.1541              1398.3526              1409.7854
 Red. masses --      1.3666                 1.5716                 1.4295
 Frc consts  --      1.5160                 1.8106                 1.6740
 IR Inten    --      9.7568                35.0155                14.0483

                     46                     47                     48
                      A                      A                      A
 Frequencies --   1439.9910              1444.3919              1489.5527
 Red. masses --      3.2237                 1.9890                 1.0502
 Frc consts  --      3.9384                 2.4449                 1.3729
 IR Inten    --     69.3224                23.3430                11.1870

                     49                     50                     51
                      A                      A                      A
 Frequencies --   1502.3675              1524.5999              1604.3858
 Red. masses --      1.0521                 2.1322                 7.0677
 Frc consts  --      1.3991                 2.9201                10.7188
 IR Inten    --      8.9854                 1.2232                18.7593

                     52                     53                     54
                      A                      A                      A
 Frequencies --   1633.9933              1666.5654              3024.5439
 Red. masses --      5.5096                10.3249                 1.0832
 Frc consts  --      8.6670                16.8958                 5.8385
 IR Inten    --     42.1728               222.3142                12.0710

                     55                     56                     57
                      A                      A                      A
 Frequencies --   3057.3295              3118.7612              3134.9431
 Red. masses --      1.0346                 1.0889                 1.1006
 Frc consts  --      5.6979                 6.2401                 6.3728
 IR Inten    --      7.1664                 2.6387                 8.5285

                     58                     59                     60
                      A                      A                      A
 Frequencies --   3145.1157              3154.2422              3157.5079
 Red. masses --      1.1012                 1.0867                 1.0899
 Frc consts  --      6.4181                 6.3700                 6.4022
 IR Inten    --      7.9390                21.2274                16.9293

                     61                     62                     63
                      A                      A                      A
 Frequencies --   3181.3592              3204.3805              3823.2787
 Red. masses --      1.0937                 1.0923                 1.0665
 Frc consts  --      6.5217                 6.6082                 9.1847
 IR Inten    --     11.5699                 3.1285                37.7448

 - Thermochemistry -
 -------------------
 Temperature   298.150 Kelvin.  Pressure   1.00000 Atm.
 Atom     1 has atomic number  6 and mass  12.00000

 Molecular mass:   182.06914 amu.
 Principal axes and moments of inertia in atomic units:
                           1         2         3
     Eigenvalues --   925.635394124.450514382.56879
           X            0.99998   0.00503  -0.00252
           Y           -0.00504   0.99998  -0.00296
           Z            0.00250   0.00298   0.99999
 This molecule is an asymmetric top.
 Rotational symmetry number  1.
 Warning -- assumption of classical behavior for rotation
           may cause significant error
 Rotational temperatures (Kelvin)      0.09357     0.02100     0.01976
 Rotational constants (GHZ):           1.94973     0.43757     0.41180
 Zero-point vibrational energy     474237.1 (Joules/Mol)
                                  113.34539 (Kcal/Mol)
 Warning -- explicit consideration of  17 degrees of freedom as
           vibrations may cause significant error
 Vibrational temperatures:     60.32    66.88    87.51   120.61   260.86
          (Kelvin)            307.03   329.53   352.34   404.65   419.97
                              444.23   517.50   560.39   701.13   755.37
                              815.77   890.74   978.68  1004.18  1068.77
                             1117.36  1211.08  1247.12  1272.44  1304.37
                             1317.49  1429.80  1448.44  1452.36  1507.62
                             1537.75  1570.42  1583.67  1616.51  1635.45
                             1755.95  1793.79  1798.30  1847.86  1875.95
                             1912.51  1929.66  1974.22  2011.92  2028.36
                             2071.82  2078.16  2143.13  2161.57  2193.56
                             2308.35  2350.95  2397.81  4351.64  4398.81
                             4487.20  4510.48  4525.11  4538.25  4542.94
                             4577.26  4610.38  5500.84

 Zero-point correction=                           0.180627 (Hartree/Particle)
 Thermal correction to Energy=                    0.192709
 Thermal correction to Enthalpy=                  0.193653
 Thermal correction to Gibbs Free Energy=         0.141091
 Sum of electronic and zero-point Energies=           -645.807741
 Sum of electronic and thermal Energies=              -645.795660
 Sum of electronic and thermal Enthalpies=            -645.794716
 Sum of electronic and thermal Free Energies=         -645.847278

                     E (Thermal)             CV                S
                      KCal/Mol        Cal/Mol-Kelvin    Cal/Mol-Kelvin
 Total                  120.926             44.352            110.625
 Electronic               0.000              0.000              0.000
 Translational            0.889              2.981             41.504
 Rotational               0.889              2.981             31.193
 Vibrational            119.149             38.390             37.928
 Vibration     1          0.595              1.980              5.166
 Vibration     2          0.595              1.979              4.962
 Vibration     3          0.597              1.973              4.430
 Vibration     4          0.601              1.960              3.799
 Vibration     5          0.630              1.865              2.315
 Vibration     6          0.644              1.821              2.014
 Vibration     7          0.652              1.797              1.887
 Vibration     8          0.660              1.771              1.767
 Vibration     9          0.681              1.708              1.526
 Vibration    10          0.687              1.689              1.463
 Vibration    11          0.698              1.657              1.369
 Vibration    12          0.734              1.555              1.123
 Vibration    13          0.757              1.493              1.002
 Vibration    14          0.843              1.278              0.691
 Vibration    15          0.880              1.195              0.598
 Vibration    16          0.923              1.103              0.510
 Vibration    17          0.979              0.992              0.418

 Optimization completed.
    -- Stationary point found.
 Normal termination of Gaussian 09 at Wed Aug 25 05:40:09 2021.

 -----------------------------------------------------------------
 #P Geom=AllCheck Guess=TCheck SCRF=Check CCSD(T,E4T,FrzG4)/GTBas1
 -----------------------------------------------------------------

 Structure from the checkpoint file:  "/public/home/users/caep010/.cache/gau_scr/Gau-7785.chk"
 ------
 MADKOT
 ------
 Charge =  0 Multiplicity = 1

 SCF Done:  E(RHF) =  -642.120643837     A.U. after   14 cycles
 E2 =    -0.1905873137D+01 EUMP2 =    -0.64402651697351D+03
 CCSD(T)
 CCSD(T)= -0.64415492129D+03
 .1684225\MP4SDQ=-644.0773769\CCSD=-644.0744014\CCSD(T)=-644.1549213\RM
 Normal termination of Gaussian 09 at Wed Aug 25 07:16:21 2021.

 ---------------------------------------------------------
 #P Geom=AllCheck Guess=TCheck SCRF=Check MP4=FrzG4/GTBas2
 ---------------------------------------------------------

 Structure from the checkpoint file:  "/public/home/users/caep010/.cache/gau_scr/Gau-7785.chk"
 ------
 MADKOT
 ------
 Charge =  0 Multiplicity = 1

 SCF Done:  E(RHF) =  -642.140048965     A.U. after   15 cycles
 E2 =    -0.1933671648D+01 EUMP2 =    -0.64407372061309D+03
 Normal termination of Gaussian 09 at Wed Aug 25 08:03:02 2021.

 ---------------------------------------------------------
 #P Geom=AllCheck Guess=TCheck SCRF=Check MP4=FrzG4/GTBas3
 ---------------------------------------------------------

 Structure from the checkpoint file:  "/public/home/users/caep010/.cache/gau_scr/Gau-7785.chk"
 ------
 MADKOT
 ------
 Charge =  0 Multiplicity = 1

 SCF Done:  E(RHF) =  -642.188649092     A.U. after   13 cycles
 E2 =    -0.2294374282D+01 EUMP2 =    -0.64448302337409D+03
 Normal termination of Gaussian 09 at Wed Aug 25 14:14:44 2021.

 -----------------------------------------------------------
 #P Geom=AllCheck Guess=TCheck SCRF=Check MP2=Full/GTLargeXP
 -----------------------------------------------------------

 Structure from the checkpoint file:  "/public/home/users/caep010/.cache/gau_scr/Gau-7785.chk"
 ------
 MADKOT
 ------
 Charge =  0 Multiplicity = 1

 SCF Done:  E(RHF) =  -642.347845515     A.U. after   15 cycles
 E2 =    -0.3007127853D+01 EUMP2 =    -0.64535497336822D+03
 Normal termination of Gaussian 09 at Wed Aug 25 14:28:14 2021.
 SCF Done:  E(RHF) =  -642.398306525     A.U. after    9 cycles
 Normal termination of Gaussian 09 at Wed Aug 25 14:35:40 2021.

                         Standard orientation:
 ---------------------------------------------------------------------
 Center     Atomic      Atomic             Coordinates (Angstroms)
 Number     Number       Type             X           Y           Z
 ---------------------------------------------------------------------
      1          6           0       -3.152197    1.024700    0.436473
      2          6           0       -1.802182    0.945595    0.769822
      3          6           0       -1.052233   -0.133643    0.303969
      4          6           0       -1.710360   -1.090934   -0.469892
      5          6           0       -3.063001   -0.917995   -0.746083
      6          6           0        0.423816   -0.277844    0.627540
      7          6           0        1.312131    0.203831   -0.528880
      8          6           0        1.121919    1.663410   -0.928168
      9          1           0        0.107331    1.818509   -1.300022
     10          7           0       -3.786557    0.117494   -0.309665
     11          7           0        2.764636    0.024187   -0.101099
     12          8           0        3.492349   -0.600575   -0.851783
     13          8           0        0.793772   -1.632874    0.832706
     14          8           0        3.102753    0.553575    0.947317
     15          1           0       -3.753575    1.857464    0.793663
     16          1           0       -1.348803    1.712474    1.390107
     17          1           0       -1.176440   -1.961476   -0.833122
     18          1           0        1.293012    2.322971   -0.073779
     19          1           0       -3.594057   -1.651895   -1.347774
     20          1           0        0.669501    0.334132    1.505623
     21          1           0        1.199749   -0.468433   -1.380126
     22          1           0        0.354874   -1.951032    1.628314
     23          1           0        1.823496    1.931792   -1.722144
 ---------------------------------------------------------------------

 SCF Done:  E(RHF) =  -642.408360986     A.U. after    8 cycles

 The electronic state is 1-A.
 Alpha  occ. eigenvalues --  -20.60220 -20.59726 -20.58956 -15.84160 -15.57919
 Alpha  occ. eigenvalues --  -11.32938 -11.31945 -11.29111 -11.28996 -11.28295
 Alpha  occ. eigenvalues --  -11.25935 -11.25580 -11.25529  -1.60270  -1.40265
 Alpha  occ. eigenvalues --   -1.39853  -1.27494  -1.15113  -1.10928  -1.05034
 Alpha  occ. eigenvalues --   -0.97268  -0.96203  -0.87768  -0.85828  -0.81520
 Alpha  occ. eigenvalues --   -0.76304  -0.74588  -0.72570  -0.71734  -0.70822
 Alpha  occ. eigenvalues --   -0.67838  -0.66694  -0.64794  -0.61788  -0.61000
 Alpha  occ. eigenvalues --   -0.59230  -0.57574  -0.55927  -0.55491  -0.53734
 Alpha  occ. eigenvalues --   -0.52224  -0.49721  -0.49046  -0.47843  -0.45298
 Alpha  occ. eigenvalues --   -0.43422  -0.39587  -0.36512
 Alpha virt. eigenvalues --    0.02386   0.03272   0.03545   0.04073   0.05277
 Alpha virt. eigenvalues --    0.05378   0.05612   0.06025   0.06618   0.07273
 Alpha virt. eigenvalues --    0.07921   0.08073   0.08248   0.08361   0.08902

 Mulliken charges:
               1
     1  C    0.012576
     2  C   -0.338183
     3  C    0.317424
     4  C   -0.300302
     5  C   -0.014205
     6  C   -0.013172
     7  C    0.046177
     8  C   -0.606272
     9  H    0.209998
    10  N   -0.566974
    11  N    0.551437
    12  O   -0.429490
    13  O   -0.592129
    14  O   -0.452211
    15  H    0.226497
    16  H    0.204177
    17  H    0.246009
    18  H    0.205674
    19  H    0.228151
    20  H    0.230063
    21  H    0.235545
    22  H    0.388924
    23  H    0.210287
 Sum of Mulliken charges =  -0.00000

 Dipole moment (field-independent basis, Debye):
    X=             -3.0850    Y=              1.1192    Z=              0.3722  Tot=              3.3028
 Quadrupole moment (field-independent basis, Debye-Ang):
   XX=           -106.7903   YY=            -71.0096   ZZ=            -73.0634
   XY=              4.0476   XZ=             -3.5545   YZ=             -0.7787

 Normal termination of Gaussian 09 at Wed Aug 25 15:28:37 2021.
