 Gaussian 09, Revision E.01,
 Gaussian 09:  ES64L-G09RevE.01 30-Nov-2015

 ----------------
 #P G4 OPT=calcfc
 ----------------

 --------
 MNIANL05
 --------
 Symbolic Z-matrix:
 Charge =  0 Multiplicity = 1

 SCF Done:  E(RB3LYP) =  -492.009794293     A.U. after   15 cycles
 SCF Done:  E(RB3LYP) =  -492.105232888     A.U. after   13 cycles
 SCF Done:  E(RB3LYP) =  -492.142152199     A.U. after   15 cycles
 SCF Done:  E(RB3LYP) =  -492.143109818     A.U. after   14 cycles
 SCF Done:  E(RB3LYP) =  -492.143225011     A.U. after   12 cycles
 SCF Done:  E(RB3LYP) =  -492.050590971     A.U. after   16 cycles
 SCF Done:  E(RB3LYP) =  -492.143236369     A.U. after   12 cycles
 SCF Done:  E(RB3LYP) =  -492.142423930     A.U. after   16 cycles
 SCF Done:  E(RB3LYP) =  -492.143368304     A.U. after   12 cycles
 SCF Done:  E(RB3LYP) =  -492.142237587     A.U. after   14 cycles
 SCF Done:  E(RB3LYP) =  -492.144374734     A.U. after   10 cycles
 SCF Done:  E(RB3LYP) =  -492.144376910     A.U. after    9 cycles
 SCF Done:  E(RB3LYP) =  -492.144377466     A.U. after    8 cycles
 Optimization completed.
    -- Stationary point found.
 Normal termination of Gaussian 09 at Thu Aug 26 09:34:14 2021.

 ----------------------------------------------------------
 #P Geom=AllCheck Guess=TCheck SCRF=Check B3LYP/GTBas3 Freq
 ----------------------------------------------------------

 Structure from the checkpoint file:  "/public/home/users/caep010/.cache/gau_scr/Gau-220038.chk"
 --------
 MNIANL05
 --------
 Charge =  0 Multiplicity = 1

 SCF Done:  E(RB3LYP) =  -492.144377466     A.U. after    1 cycles

  Exact polarizability: 118.378  -3.257 101.395   0.384  -0.140  36.507
 Approx polarizability: 191.075 -12.017 195.779  -0.437   0.743  59.801

                      1                      2                      3
                      A                      A                      A
 Frequencies --     57.5469               166.6607               218.2028
 Red. masses --     10.4381                 5.1363                 5.9883
 Frc consts  --      0.0204                 0.0841                 0.1680
 IR Inten    --      0.0685                 0.8282                 0.9240

                      4                      5                      6
                      A                      A                      A
 Frequencies --    229.8846               325.4698               376.9791
 Red. masses --      3.6455                 1.0491                 5.7900
 Frc consts  --      0.1135                 0.0655                 0.4848
 IR Inten    --      4.1098                14.7069                 1.5646

                      7                      8                      9
                      A                      A                      A
 Frequencies --    408.3987               441.2839               514.4569
 Red. masses --      5.2190                 3.2501                 4.9152
 Frc consts  --      0.5129                 0.3729                 0.7665
 IR Inten    --      0.1420                 2.2695                35.1984

                     10                     11                     12
                      A                      A                      A
 Frequencies --    534.7342               559.9664               582.7239
 Red. masses --      1.8995                 6.0001                 2.4596
 Frc consts  --      0.3200                 1.1085                 0.4921
 IR Inten    --    172.4045                 0.4534               133.4670

                     13                     14                     15
                      A                      A                      A
 Frequencies --    687.3442               695.4916               765.8280
 Red. masses --      6.8698                 2.2840                 2.8404
 Frc consts  --      1.9123                 0.6509                 0.9815
 IR Inten    --      5.2899                 5.2425                43.4993

                     16                     17                     18
                      A                      A                      A
 Frequencies --    822.1078               831.4666               893.4284
 Red. masses --      1.7391                 9.1200                 1.6113
 Frc consts  --      0.6925                 3.7148                 0.7578
 IR Inten    --      4.8559                35.6193                11.6147

                     19                     20                     21
                      A                      A                      A
 Frequencies --    926.0679               945.8614               971.4672
 Red. masses --      1.5455                 3.9544                 1.2838
 Frc consts  --      0.7809                 2.0844                 0.7138
 IR Inten    --      6.6122                 6.3255                 1.1524

                     22                     23                     24
                      A                      A                      A
 Frequencies --   1008.9433              1080.3067              1106.3595
 Red. masses --      6.1966                 1.5730                 1.9446
 Frc consts  --      3.7165                 1.0816                 1.4024
 IR Inten    --      1.1911                 6.9895                19.7232

                     25                     26                     27
                      A                      A                      A
 Frequencies --   1128.8316              1189.7001              1293.0276
 Red. masses --      1.2704                 1.1272                 1.8804
 Frc consts  --      0.9538                 0.9400                 1.8524
 IR Inten    --      9.6672                 0.8000                23.4708

                     28                     29                     30
                      A                      A                      A
 Frequencies --   1339.6299              1373.0030              1395.2087
 Red. masses --      1.9080                 6.3489                14.1786
 Frc consts  --      2.0174                 7.0516                16.2615
 IR Inten    --     46.0854                26.2298               258.8019

                     31                     32                     33
                      A                      A                      A
 Frequencies --   1492.5680              1522.0103              1614.1385
 Red. masses --      2.9008                 2.8300                 7.2046
 Frc consts  --      3.8075                 3.8625                11.0596
 IR Inten    --      0.7235                45.6983                99.0378

                     34                     35                     36
                      A                      A                      A
 Frequencies --   1629.7123              1656.4771              1673.9316
 Red. masses --      6.5008                 1.3864                 4.1836
 Frc consts  --     10.1728                 2.2414                 6.9068
 IR Inten    --    194.6909                84.2319                38.0459

                     37                     38                     39
                      A                      A                      A
 Frequencies --   3172.0483              3195.6957              3222.5058
 Red. masses --      1.0874                 1.0927                 1.0902
 Frc consts  --      6.4464                 6.5750                 6.6702
 IR Inten    --      9.6022                11.5325                 3.6213

                     40                     41                     42
                      A                      A                      A
 Frequencies --   3248.9742              3576.7328              3678.2832
 Red. masses --      1.0924                 1.0471                 1.0988
 Frc consts  --      6.7937                 7.8926                 8.7589
 IR Inten    --      2.8719                29.0232                17.6915

 - Thermochemistry -
 -------------------
 Temperature   298.150 Kelvin.  Pressure   1.00000 Atm.
 Atom     1 has atomic number  6 and mass  12.00000

 Molecular mass:   138.04293 amu.
 Principal axes and moments of inertia in atomic units:
                           1         2         3
     Eigenvalues --   664.236871822.948172485.74149
           X            0.99988  -0.01491   0.00325
           Y            0.01493   0.99988  -0.00430
           Z           -0.00319   0.00434   0.99999
 This molecule is an asymmetric top.
 Rotational symmetry number  1.
 Warning -- assumption of classical behavior for rotation
           may cause significant error
 Rotational temperatures (Kelvin)      0.13040     0.04751     0.03484
 Rotational constants (GHZ):           2.71701     0.99001     0.72604
 Zero-point vibrational energy     314339.5 (Joules/Mol)
                                   75.12894 (Kcal/Mol)
 Warning -- explicit consideration of  12 degrees of freedom as
           vibrations may cause significant error
 Vibrational temperatures:     82.80   239.79   313.94   330.75   468.28
          (Kelvin)            542.39   587.59   634.91   740.19   769.36
                              805.67   838.41   988.93  1000.66  1101.85
                             1182.83  1196.29  1285.44  1332.40  1360.88
                             1397.72  1451.64  1554.32  1591.80  1624.13
                             1711.71  1860.38  1927.43  1975.44  2007.39
                             2147.47  2189.83  2322.38  2344.79  2383.30
                             2408.41  4563.86  4597.89  4636.46  4674.54
                             5146.11  5292.22

 Zero-point correction=                           0.119726 (Hartree/Particle)
 Thermal correction to Energy=                    0.127939
 Thermal correction to Enthalpy=                  0.128883
 Thermal correction to Gibbs Free Energy=         0.086351
 Sum of electronic and zero-point Energies=           -492.024652
 Sum of electronic and thermal Energies=              -492.016439
 Sum of electronic and thermal Enthalpies=            -492.015494
 Sum of electronic and thermal Free Energies=         -492.058026

                     E (Thermal)             CV                S
                      KCal/Mol        Cal/Mol-Kelvin    Cal/Mol-Kelvin
 Total                   80.283             31.661             89.515
 Electronic               0.000              0.000              0.000
 Translational            0.889              2.981             40.679
 Rotational               0.889              2.981             29.488
 Vibrational             78.505             25.699             19.348
 Vibration     1          0.596              1.974              4.540
 Vibration     2          0.624              1.883              2.473
 Vibration     3          0.646              1.813              1.974
 Vibration     4          0.652              1.795              1.880
 Vibration     5          0.710              1.625              1.282
 Vibration     6          0.748              1.519              1.051
 Vibration     7          0.773              1.452              0.932
 Vibration     8          0.801              1.380              0.823
 Vibration     9          0.870              1.218              0.623
 Vibration    10          0.890              1.173              0.577
 Vibration    11          0.916              1.118              0.524
 Vibration    12          0.940              1.069              0.480

 Optimization completed.
    -- Stationary point found.
 Normal termination of Gaussian 09 at Thu Aug 26 09:35:38 2021.

 -----------------------------------------------------------------
 #P Geom=AllCheck Guess=TCheck SCRF=Check CCSD(T,E4T,FrzG4)/GTBas1
 -----------------------------------------------------------------

 Structure from the checkpoint file:  "/public/home/users/caep010/.cache/gau_scr/Gau-220038.chk"
 --------
 MNIANL05
 --------
 Charge =  0 Multiplicity = 1

 SCF Done:  E(RHF) =  -489.198073418     A.U. after   15 cycles
 E2 =    -0.1463850432D+01 EUMP2 =    -0.49066192384987D+03
 CCSD(T)
 CCSD(T)= -0.49075204205D+03
 652669\MP4SDQ=-490.6891704\CCSD=-490.6860788\CCSD(T)=-490.7520421\RMSD
 Normal termination of Gaussian 09 at Thu Aug 26 09:51:09 2021.

 ---------------------------------------------------------
 #P Geom=AllCheck Guess=TCheck SCRF=Check MP4=FrzG4/GTBas2
 ---------------------------------------------------------

 Structure from the checkpoint file:  "/public/home/users/caep010/.cache/gau_scr/Gau-220038.chk"
 --------
 MNIANL05
 --------
 Charge =  0 Multiplicity = 1

 SCF Done:  E(RHF) =  -489.213456563     A.U. after   15 cycles
 E2 =    -0.1482818716D+01 EUMP2 =    -0.49069627527904D+03
 Normal termination of Gaussian 09 at Thu Aug 26 09:58:32 2021.

 ---------------------------------------------------------
 #P Geom=AllCheck Guess=TCheck SCRF=Check MP4=FrzG4/GTBas3
 ---------------------------------------------------------

 Structure from the checkpoint file:  "/public/home/users/caep010/.cache/gau_scr/Gau-220038.chk"
 --------
 MNIANL05
 --------
 Charge =  0 Multiplicity = 1

 SCF Done:  E(RHF) =  -489.251368041     A.U. after   12 cycles
 E2 =    -0.1747862239D+01 EUMP2 =    -0.49099923027937D+03
 Normal termination of Gaussian 09 at Thu Aug 26 10:48:21 2021.

 -----------------------------------------------------------
 #P Geom=AllCheck Guess=TCheck SCRF=Check MP2=Full/GTLargeXP
 -----------------------------------------------------------

 Structure from the checkpoint file:  "/public/home/users/caep010/.cache/gau_scr/Gau-220038.chk"
 --------
 MNIANL05
 --------
 Charge =  0 Multiplicity = 1

 SCF Done:  E(RHF) =  -489.371699461     A.U. after   15 cycles
 E2 =    -0.2292442537D+01 EUMP2 =    -0.49166414199827D+03
 Normal termination of Gaussian 09 at Thu Aug 26 10:57:11 2021.
 SCF Done:  E(RHF) =  -489.411167453     A.U. after   10 cycles
 Normal termination of Gaussian 09 at Thu Aug 26 11:00:42 2021.

                         Standard orientation:
 ---------------------------------------------------------------------
 Center     Atomic      Atomic             Coordinates (Angstroms)
 Number     Number       Type             X           Y           Z
 ---------------------------------------------------------------------
      1          6           0       -0.589887    0.125288   -0.002568
      2          6           0        0.402758   -0.843618   -0.007093
      3          6           0        1.745299   -0.446374   -0.007900
      4          1           0        0.120735   -1.888286   -0.012565
      5          7           0        2.762866   -1.389287   -0.073068
      6          1           0        3.660979   -1.088757    0.274074
      7          6           0        2.035774    0.928382   -0.000460
      8          1           0        3.072636    1.250618   -0.002356
      9          1           0        2.520983   -2.316022    0.243640
     10          7           0       -1.996832   -0.320329    0.001139
     11          8           0       -2.865487    0.542191    0.001629
     12          8           0       -2.213363   -1.526171    0.004164
     13          6           0       -0.319370    1.487999    0.002805
     14          1           0       -1.131299    2.200210    0.007583
     15          6           0        1.017687    1.873848    0.004449
     16          1           0        1.270956    2.928238    0.011382
 ---------------------------------------------------------------------

 SCF Done:  E(RHF) =  -489.418733336     A.U. after    8 cycles

 The electronic state is 1-A.
 Alpha  occ. eigenvalues --  -20.59708 -20.59659 -15.84925 -15.58586 -11.30956
 Alpha  occ. eigenvalues --  -11.30819 -11.26349 -11.26054 -11.25876 -11.25675
 Alpha  occ. eigenvalues --   -1.60134  -1.39511  -1.25267  -1.17612  -1.08117
 Alpha  occ. eigenvalues --   -1.02586  -0.95770  -0.85757  -0.82810  -0.77708
 Alpha  occ. eigenvalues --   -0.73269  -0.71599  -0.70973  -0.69803  -0.67294
 Alpha  occ. eigenvalues --   -0.62794  -0.62234  -0.56555  -0.55392  -0.53662
 Alpha  occ. eigenvalues --   -0.49308  -0.49172  -0.48029  -0.45236  -0.37449
 Alpha  occ. eigenvalues --   -0.32342
 Alpha virt. eigenvalues --    0.02667   0.03550   0.03698   0.04584   0.05846
 Alpha virt. eigenvalues --    0.06000   0.06369   0.07895   0.08245   0.08653
 Alpha virt. eigenvalues --    0.08898   0.09255   0.09409   0.09989   0.10220

 Mulliken charges:
               1
     1  C    0.189143
     2  C   -0.260176
     3  C    0.291624
     4  H    0.226349
     5  N   -0.713040
     6  H    0.310344
     7  C   -0.256940
     8  H    0.182547
     9  H    0.312976
    10  N    0.521635
    11  O   -0.429564
    12  O   -0.439470
    13  C   -0.272689
    14  H    0.253236
    15  C   -0.134406
    16  H    0.218432
 Sum of Mulliken charges =  -0.00000

 Dipole moment (field-independent basis, Debye):
    X=              5.8174    Y=              0.6933    Z=              0.9538  Tot=              5.9357
 Quadrupole moment (field-independent basis, Debye-Ang):
   XX=            -61.0146   YY=            -52.2507   ZZ=            -60.8523
   XY=             -3.6354   XZ=              3.3871   YZ=             -1.8671

 Normal termination of Gaussian 09 at Thu Aug 26 11:25:11 2021.
