 Gaussian 09, Revision E.01,
 Gaussian 09:  ES64L-G09RevE.01 30-Nov-2015

 ----------------
 #P G4 OPT=calcfc
 ----------------

 ------
 MUTSAW
 ------
 Symbolic Z-matrix:
 Charge =  0 Multiplicity = 1

 SCF Done:  E(RB3LYP) =  -624.938568343     A.U. after   15 cycles
 SCF Done:  E(RB3LYP) =  -625.047838595     A.U. after   13 cycles
 SCF Done:  E(RB3LYP) =  -625.117971029     A.U. after   14 cycles
 SCF Done:  E(RB3LYP) =  -625.119544650     A.U. after   13 cycles
 SCF Done:  E(RB3LYP) =  -625.115948763     A.U. after   13 cycles
 SCF Done:  E(RB3LYP) =  -625.119578725     A.U. after    8 cycles
 SCF Done:  E(RB3LYP) =  -625.119921769     A.U. after   13 cycles
 SCF Done:  E(RB3LYP) =  -625.120222995     A.U. after   13 cycles
 SCF Done:  E(RB3LYP) =  -625.120907628     A.U. after   13 cycles
 SCF Done:  E(RB3LYP) =  -625.121107532     A.U. after   12 cycles
 SCF Done:  E(RB3LYP) =  -625.121198449     A.U. after    9 cycles
 SCF Done:  E(RB3LYP) =  -625.121198720     A.U. after    9 cycles
 SCF Done:  E(RB3LYP) =  -625.121198926     A.U. after    8 cycles
 Optimization completed.
    -- Stationary point found.
 Normal termination of Gaussian 09 at Wed Aug 25 23:58:38 2021.

 ----------------------------------------------------------
 #P Geom=AllCheck Guess=TCheck SCRF=Check B3LYP/GTBas3 Freq
 ----------------------------------------------------------

 Structure from the checkpoint file:  "/public/home/users/caep010/.cache/gau_scr/Gau-85259.chk"
 ------
 MUTSAW
 ------
 Charge =  0 Multiplicity = 1

 SCF Done:  E(RB3LYP) =  -625.121198926     A.U. after    1 cycles

  Exact polarizability: 130.759  13.824 114.326  -4.355   6.188  66.943
 Approx polarizability: 193.153  27.531 187.265  -6.021  12.442 103.938

                      1                      2                      3
                      A                      A                      A
 Frequencies --     49.1825                73.6945                96.8729
 Red. masses --      4.5827                 6.6884                 5.0783
 Frc consts  --      0.0065                 0.0214                 0.0281
 IR Inten    --      0.4468                 1.2142                 0.6300

                      4                      5                      6
                      A                      A                      A
 Frequencies --    107.6541               144.6597               190.6071
 Red. masses --      3.6993                 3.2110                 5.1584
 Frc consts  --      0.0253                 0.0396                 0.1104
 IR Inten    --      0.8509                 0.2091                 3.4916

                      7                      8                      9
                      A                      A                      A
 Frequencies --    202.5774               215.5351               270.4600
 Red. masses --      2.3217                 4.4687                 5.1541
 Frc consts  --      0.0561                 0.1223                 0.2221
 IR Inten    --      6.8199                 4.5788                 2.9565

                     10                     11                     12
                      A                      A                      A
 Frequencies --    320.9426               370.2146               411.9001
 Red. masses --      3.1846                 1.1764                 4.5889
 Frc consts  --      0.1933                 0.0950                 0.4587
 IR Inten    --     14.8967               194.5433                 5.4512

                     13                     14                     15
                      A                      A                      A
 Frequencies --    467.2350               494.1961               610.3567
 Red. masses --      4.0095                 2.5309                 2.8392
 Frc consts  --      0.5157                 0.3642                 0.6232
 IR Inten    --      3.9271                 7.6566                 3.6585

                     16                     17                     18
                      A                      A                      A
 Frequencies --    641.6205               693.8955               713.5377
 Red. masses --      1.2124                 9.5618                 1.1287
 Frc consts  --      0.2941                 2.7125                 0.3386
 IR Inten    --     73.6811                 9.8619                 5.1088

                     19                     20                     21
                      A                      A                      A
 Frequencies --    737.5664               754.8717               781.7680
 Red. masses --      2.3832                 5.3646                13.1891
 Frc consts  --      0.7639                 1.8011                 4.7492
 IR Inten    --      7.8154                15.8948                20.8139

                     22                     23                     24
                      A                      A                      A
 Frequencies --    846.3656               870.4193               916.6413
 Red. masses --      3.2235                 2.3693                 1.8620
 Frc consts  --      1.3605                 1.0576                 0.9218
 IR Inten    --      2.4852                 6.5473                 0.6321

                     25                     26                     27
                      A                      A                      A
 Frequencies --    949.0869               970.7335              1009.5347
 Red. masses --      2.2838                 2.1523                 3.2831
 Frc consts  --      1.2120                 1.1949                 1.9714
 IR Inten    --     13.3613                18.9758                22.4327

                     28                     29                     30
                      A                      A                      A
 Frequencies --   1062.0921              1070.0924              1088.9393
 Red. masses --      2.5526                 2.0761                 3.2688
 Frc consts  --      1.6965                 1.4007                 2.2838
 IR Inten    --     13.1697                38.3120                95.4636

                     31                     32                     33
                      A                      A                      A
 Frequencies --   1129.1213              1138.4416              1191.6372
 Red. masses --      1.6589                 2.2278                 1.6478
 Frc consts  --      1.2461                 1.7012                 1.3786
 IR Inten    --     15.8697                 4.0003                 3.4095

                     34                     35                     36
                      A                      A                      A
 Frequencies --   1218.4321              1229.8938              1249.1741
 Red. masses --      1.1621                 1.3594                 1.4561
 Frc consts  --      1.0165                 1.2115                 1.3387
 IR Inten    --     17.2726                 4.5872                 1.4556

                     37                     38                     39
                      A                      A                      A
 Frequencies --   1270.2944              1307.5452              1325.6412
 Red. masses --      2.0966                 1.8319                 1.5325
 Frc consts  --      1.9933                 1.8453                 1.5867
 IR Inten    --    186.8992                22.5147                58.3598

                     40                     41                     42
                      A                      A                      A
 Frequencies --   1342.8909              1387.6980              1391.2428
 Red. masses --      1.5530                 1.3625                 1.3944
 Frc consts  --      1.6501                 1.5459                 1.5902
 IR Inten    --    147.1152                40.3521                70.2970

                     43                     44                     45
                      A                      A                      A
 Frequencies --   1406.1071              1420.0628              1422.4406
 Red. masses --      2.0487                 1.6361                 1.7302
 Frc consts  --      2.3865                 1.9439                 2.0626
 IR Inten    --    134.6762                54.7550               157.2852

                     46                     47                     48
                      A                      A                      A
 Frequencies --   1474.9459              1495.6587              1500.3754
 Red. masses --      1.1726                 1.1698                 1.3929
 Frc consts  --      1.5030                 1.5418                 1.8474
 IR Inten    --     35.3353                18.7781                49.8673

                     49                     50                     51
                      A                      A                      A
 Frequencies --   1528.8646              1538.9789              1566.2702
 Red. masses --      1.1068                 1.6548                 6.5540
 Frc consts  --      1.5242                 2.3092                 9.4730
 IR Inten    --     14.8909               113.9825               184.0449

                     52                     53                     54
                      A                      A                      A
 Frequencies --   1658.7563              2980.1317              2992.9027
 Red. masses --      5.5895                 1.0698                 1.0726
 Frc consts  --      9.0612                 5.5979                 5.6608
 IR Inten    --    605.0154                48.9985                49.7229

                     55                     56                     57
                      A                      A                      A
 Frequencies --   3005.0789              3028.3450              3077.0590
 Red. masses --      1.0688                 1.0614                 1.0931
 Frc consts  --      5.6866                 5.7351                 6.0981
 IR Inten    --     53.7684                32.9102                34.6952

                     58                     59                     60
                      A                      A                      A
 Frequencies --   3086.7063              3088.5212              3098.4962
 Red. masses --      1.0991                 1.0955                 1.0962
 Frc consts  --      6.1697                 6.1567                 6.2007
 IR Inten    --      3.6443                44.7130                23.5317

                     61                     62                     63
                      A                      A                      A
 Frequencies --   3287.2539              3536.9458              3805.0248
 Red. masses --      1.0914                 1.0789                 1.0661
 Frc consts  --      6.9488                 7.9519                 9.0938
 IR Inten    --      7.0413               126.7887                23.5426

 - Thermochemistry -
 -------------------
 Temperature   298.150 Kelvin.  Pressure   1.00000 Atm.
 Atom     1 has atomic number  6 and mass  12.00000

 Molecular mass:   173.08004 amu.
 Principal axes and moments of inertia in atomic units:
                           1         2         3
     Eigenvalues --  1539.787252453.240443728.15714
           X            0.99988  -0.01446  -0.00635
           Y            0.01452   0.99985   0.00966
           Z            0.00621  -0.00975   0.99993
 This molecule is an asymmetric top.
 Rotational symmetry number  1.
 Warning -- assumption of classical behavior for rotation
           may cause significant error
 Rotational temperatures (Kelvin)      0.05625     0.03531     0.02323
 Rotational constants (GHZ):           1.17207     0.73566     0.48408
 Zero-point vibrational energy     492348.2 (Joules/Mol)
                                  117.67404 (Kcal/Mol)
 Warning -- explicit consideration of  15 degrees of freedom as
           vibrations may cause significant error
 Vibrational temperatures:     70.76   106.03   139.38   154.89   208.13
          (Kelvin)            274.24   291.46   310.11   389.13   461.76
                              532.66   592.63   672.25   711.04   878.17
                              923.15   998.36  1026.62  1061.19  1086.09
                             1124.79  1217.73  1252.34  1318.84  1365.52
                             1396.67  1452.49  1528.11  1539.62  1566.74
                             1624.55  1637.96  1714.50  1753.05  1769.54
                             1797.28  1827.67  1881.26  1907.30  1932.12
                             1996.59  2001.69  2023.07  2043.15  2046.57
                             2122.12  2151.92  2158.70  2199.69  2214.24
                             2253.51  2386.58  4287.74  4306.11  4323.63
                             4357.11  4427.20  4441.08  4443.69  4458.04
                             4729.62  5088.87  5474.58

 Zero-point correction=                           0.187526 (Hartree/Particle)
 Thermal correction to Energy=                    0.199118
 Thermal correction to Enthalpy=                  0.200062
 Thermal correction to Gibbs Free Energy=         0.149154
 Sum of electronic and zero-point Energies=           -624.933673
 Sum of electronic and thermal Energies=              -624.922081
 Sum of electronic and thermal Enthalpies=            -624.921137
 Sum of electronic and thermal Free Energies=         -624.972045

                     E (Thermal)             CV                S
                      KCal/Mol        Cal/Mol-Kelvin    Cal/Mol-Kelvin
 Total                  124.948             42.458            107.146
 Electronic               0.000              0.000              0.000
 Translational            0.889              2.981             41.353
 Rotational               0.889              2.981             31.022
 Vibrational            123.171             36.496             34.771
 Vibration     1          0.595              1.978              4.850
 Vibration     2          0.599              1.966              4.052
 Vibration     3          0.603              1.951              3.516
 Vibration     4          0.606              1.943              3.311
 Vibration     5          0.616              1.908              2.741
 Vibration     6          0.634              1.853              2.222
 Vibration     7          0.639              1.836              2.110
 Vibration     8          0.645              1.817              1.996
 Vibration     9          0.674              1.728              1.593
 Vibration    10          0.706              1.633              1.305
 Vibration    11          0.742              1.533              1.079
 Vibration    12          0.776              1.444              0.920
 Vibration    13          0.825              1.323              0.745
 Vibration    14          0.850              1.263              0.673
 Vibration    15          0.969              1.010              0.432

 Optimization completed.
    -- Stationary point found.
 Normal termination of Gaussian 09 at Thu Aug 26 00:01:30 2021.

 -----------------------------------------------------------------
 #P Geom=AllCheck Guess=TCheck SCRF=Check CCSD(T,E4T,FrzG4)/GTBas1
 -----------------------------------------------------------------

 Structure from the checkpoint file:  "/public/home/users/caep010/.cache/gau_scr/Gau-85259.chk"
 ------
 MUTSAW
 ------
 Charge =  0 Multiplicity = 1

 SCF Done:  E(RHF) =  -621.393775552     A.U. after   14 cycles
 E2 =    -0.1813968943D+01 EUMP2 =    -0.62320774449498D+03
 CCSD(T)
 CCSD(T)= -0.62333202586D+03
 Normal termination of Gaussian 09 at Thu Aug 26 01:11:48 2021.

 ---------------------------------------------------------
 #P Geom=AllCheck Guess=TCheck SCRF=Check MP4=FrzG4/GTBas2
 ---------------------------------------------------------

 Structure from the checkpoint file:  "/public/home/users/caep010/.cache/gau_scr/Gau-85259.chk"
 ------
 MUTSAW
 ------
 Charge =  0 Multiplicity = 1

 SCF Done:  E(RHF) =  -621.412333711     A.U. after   14 cycles
 E2 =    -0.1841461023D+01 EUMP2 =    -0.62325379473363D+03
 Normal termination of Gaussian 09 at Thu Aug 26 01:40:31 2021.

 ---------------------------------------------------------
 #P Geom=AllCheck Guess=TCheck SCRF=Check MP4=FrzG4/GTBas3
 ---------------------------------------------------------

 Structure from the checkpoint file:  "/public/home/users/caep010/.cache/gau_scr/Gau-85259.chk"
 ------
 MUTSAW
 ------
 Charge =  0 Multiplicity = 1

 SCF Done:  E(RHF) =  -621.465780120     A.U. after   13 cycles
 E2 =    -0.2200748236D+01 EUMP2 =    -0.62366652835597D+03
 Normal termination of Gaussian 09 at Thu Aug 26 04:58:03 2021.

 -----------------------------------------------------------
 #P Geom=AllCheck Guess=TCheck SCRF=Check MP2=Full/GTLargeXP
 -----------------------------------------------------------

 Structure from the checkpoint file:  "/public/home/users/caep010/.cache/gau_scr/Gau-85259.chk"
 ------
 MUTSAW
 ------
 Charge =  0 Multiplicity = 1

 SCF Done:  E(RHF) =  -621.623652002     A.U. after   15 cycles
 E2 =    -0.2873628718D+01 EUMP2 =    -0.62449728072015D+03
 Normal termination of Gaussian 09 at Thu Aug 26 05:11:36 2021.
 SCF Done:  E(RHF) =  -621.672801465     A.U. after   10 cycles
 Normal termination of Gaussian 09 at Thu Aug 26 05:18:15 2021.

                         Standard orientation:
 ---------------------------------------------------------------------
 Center     Atomic      Atomic             Coordinates (Angstroms)
 Number     Number       Type             X           Y           Z
 ---------------------------------------------------------------------
      1          6           0       -0.209530    0.463820   -0.119635
      2          7           0       -0.649323    1.727179    0.097712
      3          6           0        0.452378    2.607323    0.453947
      4          1           0        0.320291    3.609175    0.039016
      5          1           0        0.568121    2.694947    1.543490
      6          6           0        1.640704    1.860813   -0.172604
      7          1           0        1.842663    2.214295   -1.194742
      8          1           0        2.558260    1.959207    0.413031
      9          6           0       -0.989837   -0.666960   -0.235098
     10          1           0       -0.582599   -1.649025   -0.397829
     11          7           0        1.165065    0.473618   -0.193693
     12          6           0        1.953535   -0.560507   -0.855738
     13          1           0        2.732720   -0.067229   -1.450089
     14          1           0        1.314946   -1.117967   -1.549117
     15          6           0        2.603217   -1.531824    0.132273
     16          1           0        3.238227   -2.231084   -0.422218
     17          8           0        1.656914   -2.319282    0.825088
     18          1           0        1.103587   -1.731210    1.351196
     19          1           0        3.251688   -0.972668    0.825587
     20          7           0       -2.382056   -0.633536   -0.078904
     21          8           0       -2.996280   -1.694244   -0.208501
     22          1           0       -1.614151    1.815145    0.397591
     23          8           0       -2.957179    0.447226    0.189588
 ---------------------------------------------------------------------

 SCF Done:  E(RHF) =  -621.682923789     A.U. after    8 cycles

 The electronic state is 1-A.
 Alpha  occ. eigenvalues --  -20.57111 -20.56062 -20.55633 -15.82092 -15.61537
 Alpha  occ. eigenvalues --  -15.59906 -11.36651 -11.30341 -11.30041 -11.29797
 Alpha  occ. eigenvalues --  -11.29290 -11.25071  -1.55849  -1.38104  -1.36012
 Alpha  occ. eigenvalues --   -1.34710  -1.22446  -1.11501  -1.04872  -1.02470
 Alpha  occ. eigenvalues --   -0.90231  -0.89430  -0.86525  -0.79509  -0.74886
 Alpha  occ. eigenvalues --   -0.72894  -0.71059  -0.70188  -0.68397  -0.67750
 Alpha  occ. eigenvalues --   -0.67016  -0.65442  -0.61885  -0.59931  -0.59504
 Alpha  occ. eigenvalues --   -0.58082  -0.57280  -0.55652  -0.53299  -0.50921
 Alpha  occ. eigenvalues --   -0.47361  -0.46791  -0.45566  -0.43135  -0.39999
 Alpha  occ. eigenvalues --   -0.33634
 Alpha virt. eigenvalues --    0.01872   0.02724   0.03208   0.03909   0.04858
 Alpha virt. eigenvalues --    0.05363   0.05634   0.06397   0.06679   0.07711
 Alpha virt. eigenvalues --    0.07867   0.08532   0.08845   0.08965   0.09286

 Mulliken charges:
               1
     1  C    0.356478
     2  N   -0.448730
     3  C   -0.224286
     4  H    0.197947
     5  H    0.171033
     6  C   -0.321618
     7  H    0.165324
     8  H    0.187771
     9  C   -0.359409
    10  H    0.276556
    11  N   -0.056989
    12  C   -0.290167
    13  H    0.185780
    14  H    0.212503
    15  C   -0.094061
    16  H    0.168931
    17  O   -0.572527
    18  H    0.379717
    19  H    0.135038
    20  N    0.543280
    21  O   -0.470024
    22  H    0.389285
    23  O   -0.531833
 Sum of Mulliken charges =  -0.00000

 Dipole moment (field-independent basis, Debye):
    X=              7.9490    Y=              5.1031    Z=             -0.1873  Tot=              9.4479
 Quadrupole moment (field-independent basis, Debye-Ang):
   XX=            -85.7029   YY=            -72.9236   ZZ=            -69.2952
   XY=             -1.6446   XZ=             -3.3186   YZ=              3.4233

 Normal termination of Gaussian 09 at Thu Aug 26 06:01:39 2021.
