 Gaussian 09, Revision E.01,
 Gaussian 09:  ES64L-G09RevE.01 30-Nov-2015

 ----------------
 #P G4 OPT=calcfc
 ----------------

 --------
 MNPYDO29
 --------
 Symbolic Z-matrix:
 Charge =  0 Multiplicity = 1

 SCF Done:  E(RB3LYP) =  -567.195155078     A.U. after   16 cycles
 SCF Done:  E(RB3LYP) =  -567.272858440     A.U. after   14 cycles
 SCF Done:  E(RB3LYP) =  -567.302885547     A.U. after   16 cycles
 SCF Done:  E(RB3LYP) =  -567.304761980     A.U. after   14 cycles
 SCF Done:  E(RB3LYP) =  -567.304887711     A.U. after   14 cycles
 SCF Done:  E(RB3LYP) =  -567.304909841     A.U. after   12 cycles
 SCF Done:  E(RB3LYP) =  -567.304914527     A.U. after   11 cycles
 SCF Done:  E(RB3LYP) =  -567.304914901     A.U. after   10 cycles
 Optimization completed.
    -- Stationary point found.
 Normal termination of Gaussian 09 at Thu Aug 26 14:28:46 2021.

 ----------------------------------------------------------
 #P Geom=AllCheck Guess=TCheck SCRF=Check B3LYP/GTBas3 Freq
 ----------------------------------------------------------

 Structure from the checkpoint file:  "/public/home/users/caep010/.cache/gau_scr/Gau-59630.chk"
 --------
 MNPYDO29
 --------
 Charge =  0 Multiplicity = 1

 SCF Done:  E(RB3LYP) =  -567.304914901     A.U. after    1 cycles

  Exact polarizability: 143.541  -1.719 102.795   0.000  -0.000  42.433
 Approx polarizability: 305.185   0.220 186.426   0.004  -0.006  69.370

                      1                      2                      3
                      A                      A                      A
 Frequencies --     40.6970               104.1775               208.1876
 Red. masses --      8.3211                 7.7967                 2.5615
 Frc consts  --      0.0081                 0.0499                 0.0654
 IR Inten    --      0.0663                 9.4722                 0.0297

                      4                      5                      6
                      A                      A                      A
 Frequencies --    241.3998               251.0300               296.7578
 Red. masses --      1.1559                 9.0589                 6.7643
 Frc consts  --      0.0397                 0.3363                 0.3510
 IR Inten    --      0.3065                 7.3938                 0.6499

                      7                      8                      9
                      A                      A                      A
 Frequencies --    332.6809               363.9141               464.9110
 Red. masses --      3.6380                 8.6563                 3.0898
 Frc consts  --      0.2372                 0.6754                 0.3935
 IR Inten    --      0.6524                 0.9180                 1.0955

                     10                     11                     12
                      A                      A                      A
 Frequencies --    466.9973               541.6258               595.9041
 Red. masses --     10.1668                 5.3006                 3.4857
 Frc consts  --      1.3064                 0.9162                 0.7293
 IR Inten    --      7.2510                 2.3282                 0.0152

                     13                     14                     15
                      A                      A                      A
 Frequencies --    611.8686               651.8217               708.7618
 Red. masses --      4.6023                 7.4028                 3.1621
 Frc consts  --      1.0152                 1.8531                 0.9359
 IR Inten    --      0.2874                27.8208                10.8172

                     16                     17                     18
                      A                      A                      A
 Frequencies --    762.6717               787.8344               854.2859
 Red. masses --      6.5388                 5.2112                 1.4327
 Frc consts  --      2.2409                 1.9057                 0.6160
 IR Inten    --      3.8639                10.4505                 5.3759

                     19                     20                     21
                      A                      A                      A
 Frequencies --    859.7116               891.8721               982.8119
 Red. masses --      8.6989                 1.6582                 1.3225
 Frc consts  --      3.7881                 0.7771                 0.7527
 IR Inten    --     15.6456                27.1790                 0.6555

                     22                     23                     24
                      A                      A                      A
 Frequencies --    986.2917              1043.5511              1061.5569
 Red. masses --      2.7420                 1.5246                 1.5441
 Frc consts  --      1.5716                 0.9782                 1.0252
 IR Inten    --      0.5281                 2.2873                 3.6494

                     25                     26                     27
                      A                      A                      A
 Frequencies --   1107.7597              1174.2487              1199.7701
 Red. masses --      3.1659                 1.7529                 2.2076
 Frc consts  --      2.2889                 1.4241                 1.8723
 IR Inten    --    129.4889                 4.7448                 0.7410

                     28                     29                     30
                      A                      A                      A
 Frequencies --   1269.1424              1294.0740              1370.9039
 Red. masses --      2.7221                 1.9841                 9.8308
 Frc consts  --      2.5833                 1.9577                10.8857
 IR Inten    --     26.8153                 4.3484               572.8686

                     31                     32                     33
                      A                      A                      A
 Frequencies --   1398.3038              1418.3094              1454.3932
 Red. masses --      3.8343                 1.2396                 1.9090
 Frc consts  --      4.4172                 1.4692                 2.3791
 IR Inten    --      0.9800                 3.4665                 5.9698

                     34                     35                     36
                      A                      A                      A
 Frequencies --   1472.5481              1499.7733              1510.0693
 Red. masses --      1.0448                 1.6206                 3.2916
 Frc consts  --      1.3348                 2.1477                 4.4223
 IR Inten    --      6.8349                83.0521                32.2604

                     37                     38                     39
                      A                      A                      A
 Frequencies --   1557.4831              1629.9705              1657.1869
 Red. masses --      9.2792                10.9322                 6.2665
 Frc consts  --     13.2619                17.1126                10.1395
 IR Inten    --     29.4502               210.0304               122.6398

                     40                     41                     42
                      A                      A                      A
 Frequencies --   3059.6498              3132.4662              3138.4612
 Red. masses --      1.0354                 1.0992                 1.1034
 Frc consts  --      5.7109                 6.3548                 6.4038
 IR Inten    --      8.3149                 2.1489                13.5677

                     43                     44                     45
                      A                      A                      A
 Frequencies --   3242.0807              3244.0212              3258.6108
 Red. masses --      1.0889                 1.0917                 1.0962
 Frc consts  --      6.7437                 6.7691                 6.8583
 IR Inten    --      5.0861                 0.0361                 2.6566

 - Thermochemistry -
 -------------------
 Temperature   298.150 Kelvin.  Pressure   1.00000 Atm.
 Atom     1 has atomic number  7 and mass  14.00307

 Molecular mass:   154.03784 amu.
 Principal axes and moments of inertia in atomic units:
                           1         2         3
     Eigenvalues --   793.198062180.997772963.22078
           X            0.99987  -0.01605  -0.00000
           Y            0.01605   0.99987   0.00001
           Z            0.00000  -0.00001   1.00000
 This molecule is an asymmetric top.
 Rotational symmetry number  1.
 Warning -- assumption of classical behavior for rotation
           may cause significant error
 Rotational temperatures (Kelvin)      0.10920     0.03971     0.02923
 Rotational constants (GHZ):           2.27527     0.82748     0.60905
 Zero-point vibrational energy     324191.3 (Joules/Mol)
                                   77.48357 (Kcal/Mol)
 Warning -- explicit consideration of  13 degrees of freedom as
           vibrations may cause significant error
 Vibrational temperatures:     58.55   149.89   299.54   347.32   361.18
          (Kelvin)            426.97   478.65   523.59   668.90   671.90
                              779.28   857.37   880.34   937.82  1019.75
                             1097.31  1133.52  1229.13  1236.93  1283.20
                             1414.05  1419.05  1501.44  1527.34  1593.82
                             1689.48  1726.20  1826.01  1861.88  1972.42
                             2011.84  2040.63  2092.54  2118.67  2157.84
                             2172.65  2240.87  2345.16  2384.32  4402.15
                             4506.91  4515.54  4664.63  4667.42  4688.41

 Zero-point correction=                           0.123478 (Hartree/Particle)
 Thermal correction to Energy=                    0.132459
 Thermal correction to Enthalpy=                  0.133403
 Thermal correction to Gibbs Free Energy=         0.088639
 Sum of electronic and zero-point Energies=           -567.181437
 Sum of electronic and thermal Energies=              -567.172456
 Sum of electronic and thermal Enthalpies=            -567.171512
 Sum of electronic and thermal Free Energies=         -567.216276

                     E (Thermal)             CV                S
                      KCal/Mol        Cal/Mol-Kelvin    Cal/Mol-Kelvin
 Total                   83.119             33.946             94.214
 Electronic               0.000              0.000              0.000
 Translational            0.889              2.981             41.006
 Rotational               0.889              2.981             30.018
 Vibrational             81.342             27.985             23.191
 Vibration     1          0.594              1.981              5.225
 Vibration     2          0.605              1.946              3.375
 Vibration     3          0.642              1.828              2.060
 Vibration     4          0.658              1.777              1.793
 Vibration     5          0.663              1.761              1.723
 Vibration     6          0.690              1.680              1.435
 Vibration     7          0.715              1.610              1.247
 Vibration     8          0.737              1.547              1.105
 Vibration     9          0.822              1.328              0.752
 Vibration    10          0.824              1.323              0.746
 Vibration    11          0.897              1.158              0.562
 Vibration    12          0.954              1.041              0.457
 Vibration    13          0.971              1.007              0.430

 Optimization completed.
    -- Stationary point found.
 Normal termination of Gaussian 09 at Thu Aug 26 14:30:35 2021.

 -----------------------------------------------------------------
 #P Geom=AllCheck Guess=TCheck SCRF=Check CCSD(T,E4T,FrzG4)/GTBas1
 -----------------------------------------------------------------

 Structure from the checkpoint file:  "/public/home/users/caep010/.cache/gau_scr/Gau-59630.chk"
 --------
 MNPYDO29
 --------
 Charge =  0 Multiplicity = 1

 SCF Done:  E(RHF) =  -563.967707826     A.U. after   16 cycles
 E2 =    -0.1666831349D+01 EUMP2 =    -0.56563453917525D+03
 CCSD(T)
 CCSD(T)= -0.56572760304D+03
 2\CCSD(T)=-565.727603\RMSD=3.782e-09\PG=C01 [X(C6H6N2O3)]\\@
 Normal termination of Gaussian 09 at Thu Aug 26 15:12:20 2021.

 ---------------------------------------------------------
 #P Geom=AllCheck Guess=TCheck SCRF=Check MP4=FrzG4/GTBas2
 ---------------------------------------------------------

 Structure from the checkpoint file:  "/public/home/users/caep010/.cache/gau_scr/Gau-59630.chk"
 --------
 MNPYDO29
 --------
 Charge =  0 Multiplicity = 1

 SCF Done:  E(RHF) =  -563.984389689     A.U. after   15 cycles
 E2 =    -0.1688399447D+01 EUMP2 =    -0.56567278913606D+03
 Normal termination of Gaussian 09 at Thu Aug 26 15:24:05 2021.

 ---------------------------------------------------------
 #P Geom=AllCheck Guess=TCheck SCRF=Check MP4=FrzG4/GTBas3
 ---------------------------------------------------------

 Structure from the checkpoint file:  "/public/home/users/caep010/.cache/gau_scr/Gau-59630.chk"
 --------
 MNPYDO29
 --------
 Charge =  0 Multiplicity = 1

 SCF Done:  E(RHF) =  -564.025311260     A.U. after   13 cycles
 E2 =    -0.1990191476D+01 EUMP2 =    -0.56601550273633D+03
 Normal termination of Gaussian 09 at Thu Aug 26 16:36:22 2021.

 -----------------------------------------------------------
 #P Geom=AllCheck Guess=TCheck SCRF=Check MP2=Full/GTLargeXP
 -----------------------------------------------------------

 Structure from the checkpoint file:  "/public/home/users/caep010/.cache/gau_scr/Gau-59630.chk"
 --------
 MNPYDO29
 --------
 Charge =  0 Multiplicity = 1

 SCF Done:  E(RHF) =  -564.165654128     A.U. after   16 cycles
 E2 =    -0.2598214356D+01 EUMP2 =    -0.56676386848450D+03
 Normal termination of Gaussian 09 at Thu Aug 26 16:48:28 2021.
 SCF Done:  E(RHF) =  -564.210712494     A.U. after   11 cycles
 Normal termination of Gaussian 09 at Thu Aug 26 16:53:24 2021.

                         Standard orientation:
 ---------------------------------------------------------------------
 Center     Atomic      Atomic             Coordinates (Angstroms)
 Number     Number       Type             X           Y           Z
 ---------------------------------------------------------------------
      1          7           0        2.188119   -0.153013   -0.000001
      2          6           0        1.426943    0.988966    0.000045
      3          1           0        2.022234    1.890919    0.000178
      4          6           0        0.042605    0.991405    0.000017
      5          6           0       -0.589034   -0.267541   -0.000065
      6          6           0        0.178647   -1.432276   -0.000096
      7          1           0       -0.320684   -2.391026   -0.000121
      8          6           0        1.546900   -1.367908   -0.000104
      9          1           0        2.213065   -2.217804   -0.000144
     10          8           0        3.446087   -0.087280    0.000035
     11          6           0       -0.648513    2.329902    0.000087
     12          1           0        0.093355    3.131634   -0.000041
     13          1           0       -1.295155    2.438595   -0.872967
     14          1           0       -1.294932    2.438629    0.873303
     15          7           0       -2.040145   -0.430145    0.000001
     16          8           0       -2.739067    0.578967   -0.000271
     17          8           0       -2.481894   -1.574703    0.000298
 ---------------------------------------------------------------------

 SCF Done:  E(RHF) =  -564.219501146     A.U. after    8 cycles

 The electronic state is 1-A.
 Alpha  occ. eigenvalues --  -20.61499 -20.61327 -20.54849 -15.87071 -15.77212
 Alpha  occ. eigenvalues --  -11.33349 -11.32022 -11.31549 -11.31381 -11.30331
 Alpha  occ. eigenvalues --  -11.25843  -1.61962  -1.49281  -1.41241  -1.24618
 Alpha  occ. eigenvalues --   -1.14910  -1.11615  -1.02899  -0.97983  -0.90645
 Alpha  occ. eigenvalues --   -0.86457  -0.79673  -0.76796  -0.73773  -0.72582
 Alpha  occ. eigenvalues --   -0.71365  -0.68094  -0.67271  -0.64203  -0.61801
 Alpha  occ. eigenvalues --   -0.60306  -0.58788  -0.56812  -0.51402  -0.50592
 Alpha  occ. eigenvalues --   -0.50591  -0.46953  -0.45856  -0.39925  -0.35169
 Alpha virt. eigenvalues --    0.00531   0.03108   0.03537   0.04420   0.04600
 Alpha virt. eigenvalues --    0.05601   0.06151   0.06219   0.07155   0.07285
 Alpha virt. eigenvalues --    0.07664   0.08140   0.08720   0.09089   0.09453

 Mulliken charges:
               1
     1  N    0.230417
     2  C   -0.190915
     3  H    0.248580
     4  C    0.315807
     5  C    0.178710
     6  C   -0.104395
     7  H    0.278027
     8  C   -0.192808
     9  H    0.258600
    10  O   -0.615288
    11  C   -0.665995
    12  H    0.187060
    13  H    0.219275
    14  H    0.219257
    15  N    0.498622
    16  O   -0.422520
    17  O   -0.442434
 Sum of Mulliken charges =  -0.00000

 Dipole moment (field-independent basis, Debye):
    X=              0.0364    Y=              0.9273    Z=             -0.0001  Tot=              0.9280
 Quadrupole moment (field-independent basis, Debye-Ang):
   XX=            -92.4826   YY=            -54.3685   ZZ=            -63.2676
   XY=             -3.4725   XZ=             -0.0002   YZ=              0.0020

 Normal termination of Gaussian 09 at Thu Aug 26 17:24:35 2021.
