 Gaussian 09, Revision E.01,
 Gaussian 09:  ES64L-G09RevE.01 30-Nov-2015

 ----------------
 #P G4 OPT=calcfc
 ----------------

 ------
 MUZNEC
 ------
 Symbolic Z-matrix:
 Charge =  0 Multiplicity = 1

 SCF Done:  E(RB3LYP) =  -485.988449578     A.U. after   15 cycles
 SCF Done:  E(RB3LYP) =  -486.056893793     A.U. after   14 cycles
 SCF Done:  E(RB3LYP) =  -486.076645345     A.U. after   15 cycles
 SCF Done:  E(RB3LYP) =  -486.077774853     A.U. after   12 cycles
 SCF Done:  E(RB3LYP) =  -486.077844788     A.U. after   13 cycles
 SCF Done:  E(RB3LYP) =  -486.077873726     A.U. after   13 cycles
 SCF Done:  E(RB3LYP) =  -486.077908203     A.U. after   11 cycles
 SCF Done:  E(RB3LYP) =  -486.077910092     A.U. after    9 cycles
 Optimization completed.
    -- Stationary point found.
 Normal termination of Gaussian 09 at Wed Aug 25 18:16:10 2021.

 ----------------------------------------------------------
 #P Geom=AllCheck Guess=TCheck SCRF=Check B3LYP/GTBas3 Freq
 ----------------------------------------------------------

 Structure from the checkpoint file:  "/public/home/users/caep010/.cache/gau_scr/Gau-100858.chk"
 ------
 MUZNEC
 ------
 Charge =  0 Multiplicity = 1

 SCF Done:  E(RB3LYP) =  -486.077910092     A.U. after    1 cycles

  Exact polarizability:  78.984  -1.503  77.580  -0.001   0.001  34.884
 Approx polarizability: 130.969  -1.301 146.553  -0.001   0.000  55.809

                      1                      2                      3
                      A                      A                      A
 Frequencies --     59.8468               148.5924               205.0335
 Red. masses --      8.9561                 1.0496                 5.1827
 Frc consts  --      0.0189                 0.0137                 0.1284
 IR Inten    --      0.0020                 0.4818                 1.9397

                      4                      5                      6
                      A                      A                      A
 Frequencies --    215.8131               294.0103               337.4683
 Red. masses --      7.9310                 3.6887                 4.4089
 Frc consts  --      0.2176                 0.1879                 0.2958
 IR Inten    --      1.8254                 0.6748                 1.4337

                      7                      8                      9
                      A                      A                      A
 Frequencies --    445.9648               549.0281               576.8670
 Red. masses --     10.2873                 5.9853                 1.8558
 Frc consts  --      1.2055                 1.0630                 0.3639
 IR Inten    --      0.2631                 1.3709                34.0465

                     10                     11                     12
                      A                      A                      A
 Frequencies --    685.4925               700.8535               724.2368
 Red. masses --      5.8725                 5.3579                 2.3795
 Frc consts  --      1.6258                 1.5506                 0.7353
 IR Inten    --     11.3421                 8.9544                47.5770

                     13                     14                     15
                      A                      A                      A
 Frequencies --    806.1543               853.3194               987.3156
 Red. masses --      9.9532                13.1059                 3.7125
 Frc consts  --      3.8111                 5.6226                 2.1322
 IR Inten    --      2.4015                50.9739                10.8909

                     16                     17                     18
                      A                      A                      A
 Frequencies --   1024.9013              1071.8959              1164.9289
 Red. masses --      2.1854                 1.5311                 3.5849
 Frc consts  --      1.3525                 1.0365                 2.8664
 IR Inten    --      7.4930                 1.6581                39.0917

                     19                     20                     21
                      A                      A                      A
 Frequencies --   1197.1422              1274.5272              1372.5843
 Red. masses --      8.1123                 4.4993                 6.6100
 Frc consts  --      6.8499                 4.3062                 7.3372
 IR Inten    --      0.8585                21.9629                 6.8788

                     22                     23                     24
                      A                      A                      A
 Frequencies --   1400.8176              1417.6002              1430.0400
 Red. masses --      5.7410                 1.3334                 3.2386
 Frc consts  --      6.6374                 1.5787                 3.9022
 IR Inten    --     34.9088                16.3935               157.0861

                     25                     26                     27
                      A                      A                      A
 Frequencies --   1474.8180              1479.7924              1501.0883
 Red. masses --      1.0427                 1.1791                 3.1433
 Frc consts  --      1.3362                 1.5213                 4.1729
 IR Inten    --      7.3813                17.5307                 3.2438

                     28                     29                     30
                      A                      A                      A
 Frequencies --   1565.3755              1643.9298              3056.2980
 Red. masses --      4.7575                13.5169                 1.0354
 Frc consts  --      6.8686                21.5225                 5.6982
 IR Inten    --      1.6924               256.2366                 4.8595

                     31                     32                     33
                      A                      A                      A
 Frequencies --   3117.6892              3147.1695              3656.2649
 Red. masses --      1.0994                 1.1034                 1.0823
 Frc consts  --      6.2962                 6.4391                 8.5249
 IR Inten    --      3.3607                 7.5432               146.0779

 - Thermochemistry -
 -------------------
 Temperature   298.150 Kelvin.  Pressure   1.00000 Atm.
 Atom     1 has atomic number  7 and mass  14.00307

 Molecular mass:   128.03343 amu.
 Principal axes and moments of inertia in atomic units:
                           1         2         3
     Eigenvalues --   643.475581091.949151724.36121
           X            0.99986   0.01655  -0.00000
           Y           -0.01655   0.99986   0.00000
           Z            0.00000  -0.00000   1.00000
 This molecule is an asymmetric top.
 Rotational symmetry number  1.
 Warning -- assumption of classical behavior for rotation
           may cause significant error
 Rotational temperatures (Kelvin)      0.13460     0.07932     0.05023
 Rotational constants (GHZ):           2.80468     1.65277     1.04661
 Zero-point vibrational energy     236782.0 (Joules/Mol)
                                   56.59226 (Kcal/Mol)
 Warning -- explicit consideration of   9 degrees of freedom as
           vibrations may cause significant error
 Vibrational temperatures:     86.11   213.79   295.00   310.51   423.01
          (Kelvin)            485.54   641.64   789.93   829.98   986.27
                             1008.37  1042.01  1159.87  1227.73  1420.53
                             1474.60  1542.22  1676.07  1722.42  1833.76
                             1974.84  2015.46  2039.61  2057.51  2121.93
                             2129.09  2159.73  2252.22  2365.25  4397.33
                             4485.65  4528.07  5260.54

 Zero-point correction=                           0.090186 (Hartree/Particle)
 Thermal correction to Energy=                    0.097676
 Thermal correction to Enthalpy=                  0.098621
 Thermal correction to Gibbs Free Energy=         0.057490
 Sum of electronic and zero-point Energies=           -485.987725
 Sum of electronic and thermal Energies=              -485.980234
 Sum of electronic and thermal Enthalpies=            -485.979289
 Sum of electronic and thermal Free Energies=         -486.020420

                     E (Thermal)             CV                S
                      KCal/Mol        Cal/Mol-Kelvin    Cal/Mol-Kelvin
 Total                   61.293             26.445             86.567
 Electronic               0.000              0.000              0.000
 Translational            0.889              2.981             40.455
 Rotational               0.889              2.981             28.584
 Vibrational             59.515             20.484             17.528
 Vibration     1          0.597              1.973              4.462
 Vibration     2          0.618              1.904              2.690
 Vibration     3          0.640              1.833              2.087
 Vibration     4          0.645              1.817              1.994
 Vibration     5          0.689              1.685              1.451
 Vibration     6          0.718              1.601              1.224
 Vibration     7          0.805              1.370              0.808
 Vibration     8          0.904              1.142              0.546
 Vibration     9          0.933              1.081              0.491

 Optimization completed.
    -- Stationary point found.
 Normal termination of Gaussian 09 at Wed Aug 25 18:17:08 2021.

 -----------------------------------------------------------------
 #P Geom=AllCheck Guess=TCheck SCRF=Check CCSD(T,E4T,FrzG4)/GTBas1
 -----------------------------------------------------------------

 Structure from the checkpoint file:  "/public/home/users/caep010/.cache/gau_scr/Gau-100858.chk"
 ------
 MUZNEC
 ------
 Charge =  0 Multiplicity = 1

 SCF Done:  E(RHF) =  -483.272801178     A.U. after   15 cycles
 E2 =    -0.1424505307D+01 EUMP2 =    -0.48469730648507D+03
 CCSD(T)
 CCSD(T)= -0.48476595661D+03
 Q=-484.7824948\MP4SDQ=-484.707504\CCSD=-484.7028874\CCSD(T)=-484.76595
 Normal termination of Gaussian 09 at Wed Aug 25 18:26:33 2021.

 ---------------------------------------------------------
 #P Geom=AllCheck Guess=TCheck SCRF=Check MP4=FrzG4/GTBas2
 ---------------------------------------------------------

 Structure from the checkpoint file:  "/public/home/users/caep010/.cache/gau_scr/Gau-100858.chk"
 ------
 MUZNEC
 ------
 Charge =  0 Multiplicity = 1

 SCF Done:  E(RHF) =  -483.286452757     A.U. after   14 cycles
 E2 =    -0.1442659140D+01 EUMP2 =    -0.48472911189765D+03
 Normal termination of Gaussian 09 at Wed Aug 25 18:29:34 2021.

 ---------------------------------------------------------
 #P Geom=AllCheck Guess=TCheck SCRF=Check MP4=FrzG4/GTBas3
 ---------------------------------------------------------

 Structure from the checkpoint file:  "/public/home/users/caep010/.cache/gau_scr/Gau-100858.chk"
 ------
 MUZNEC
 ------
 Charge =  0 Multiplicity = 1

 SCF Done:  E(RHF) =  -483.323275649     A.U. after   12 cycles
 E2 =    -0.1689493473D+01 EUMP2 =    -0.48501276912281D+03
 Normal termination of Gaussian 09 at Wed Aug 25 18:52:47 2021.

 -----------------------------------------------------------
 #P Geom=AllCheck Guess=TCheck SCRF=Check MP2=Full/GTLargeXP
 -----------------------------------------------------------

 Structure from the checkpoint file:  "/public/home/users/caep010/.cache/gau_scr/Gau-100858.chk"
 ------
 MUZNEC
 ------
 Charge =  0 Multiplicity = 1

 SCF Done:  E(RHF) =  -483.445303336     A.U. after   13 cycles
 E2 =    -0.2193070377D+01 EUMP2 =    -0.48563837371342D+03
 Normal termination of Gaussian 09 at Wed Aug 25 18:59:31 2021.
 SCF Done:  E(RHF) =  -483.483818576     A.U. after   10 cycles
 Normal termination of Gaussian 09 at Wed Aug 25 19:04:48 2021.

                         Standard orientation:
 ---------------------------------------------------------------------
 Center     Atomic      Atomic             Coordinates (Angstroms)
 Number     Number       Type             X           Y           Z
 ---------------------------------------------------------------------
      1          7           0       -1.539113   -0.070750    0.000015
      2          8           0       -2.286659   -1.033339    0.000056
      3          8           0       -1.883171    1.109433   -0.000076
      4          6           0       -0.114436   -0.305858   -0.000000
      5          7           0        0.375174   -1.542937   -0.000050
      6          7           0        1.668621   -1.321988    0.000020
      7          1           0        2.330482   -2.082814   -0.000178
      8          7           0        2.070036   -0.050661    0.000024
      9          6           0        0.930807    0.644896    0.000035
     10          6           0        0.905439    2.133656    0.000001
     11          1           0        0.373228    2.512823   -0.876479
     12          1           0        1.927599    2.516455   -0.000274
     13          1           0        0.373444    2.512962    0.876817
 ---------------------------------------------------------------------

 SCF Done:  E(RHF) =  -483.491329062     A.U. after    7 cycles

 The electronic state is 1-A.
 Alpha  occ. eigenvalues --  -20.61227 -20.60835 -15.86776 -15.72260 -15.66917
 Alpha  occ. eigenvalues --  -15.64395 -11.34068 -11.31797 -11.25044  -1.61769
 Alpha  occ. eigenvalues --   -1.49341  -1.41084  -1.24305  -1.17405  -1.03543
 Alpha  occ. eigenvalues --   -1.00512  -0.85958  -0.83778  -0.79200  -0.75485
 Alpha  occ. eigenvalues --   -0.74106  -0.72812  -0.68499  -0.61912  -0.59183
 Alpha  occ. eigenvalues --   -0.58612  -0.54481  -0.52415  -0.50847  -0.49613
 Alpha  occ. eigenvalues --   -0.46349  -0.43857  -0.40823
 Alpha virt. eigenvalues --    0.03256   0.03675   0.04083   0.05172   0.05238
 Alpha virt. eigenvalues --    0.06322   0.06910   0.07358   0.07852   0.08668
 Alpha virt. eigenvalues --    0.09330   0.09903   0.11118   0.11455   0.11901

 Mulliken charges:
               1
     1  N    0.501886
     2  O   -0.388693
     3  O   -0.430700
     4  C    0.221289
     5  N   -0.254205
     6  N   -0.064661
     7  H    0.400249
     8  N   -0.325588
     9  C    0.307858
    10  C   -0.590337
    11  H    0.208701
    12  H    0.205522
    13  H    0.208680
 Sum of Mulliken charges =  -0.00000

 Dipole moment (field-independent basis, Debye):
    X=              4.3554    Y=             -0.0998    Z=             -0.0003  Tot=              4.3565
 Quadrupole moment (field-independent basis, Debye-Ang):
   XX=            -58.2395   YY=            -47.7829   ZZ=            -50.1919
   XY=             -5.6809   XZ=             -0.0013   YZ=              0.0006

 Normal termination of Gaussian 09 at Wed Aug 25 19:19:56 2021.
