 Gaussian 09, Revision E.01,
 Gaussian 09:  ES64L-G09RevE.01 30-Nov-2015

 ----------------
 #P G4 OPT=calcfc
 ----------------

 ------
 MOTJOU
 ------
 Symbolic Z-matrix:
 Charge =  0 Multiplicity = 1

 SCF Done:  E(RB3LYP) =  -645.837252513     A.U. after   15 cycles
 SCF Done:  E(RB3LYP) =  -645.919550198     A.U. after   15 cycles
 SCF Done:  E(RB3LYP) =  -645.948042182     A.U. after   16 cycles
 SCF Done:  E(RB3LYP) =  -645.928285958     A.U. after   16 cycles
 SCF Done:  E(RB3LYP) =  -645.956629856     A.U. after   13 cycles
 SCF Done:  E(RB3LYP) =  -645.959896512     A.U. after   16 cycles
 SCF Done:  E(RB3LYP) =  -645.961152876     A.U. after   14 cycles
 SCF Done:  E(RB3LYP) =  -645.953769338     A.U. after   16 cycles
 SCF Done:  E(RB3LYP) =  -645.961788101     A.U. after   11 cycles
 SCF Done:  E(RB3LYP) =  -645.962332157     A.U. after   12 cycles
 SCF Done:  E(RB3LYP) =  -645.962974332     A.U. after   10 cycles
 SCF Done:  E(RB3LYP) =  -645.962976837     A.U. after    9 cycles
 SCF Done:  E(RB3LYP) =  -645.962976951     A.U. after    7 cycles
 Optimization completed.
    -- Stationary point found.
 Normal termination of Gaussian 09 at Thu Aug 26 15:34:57 2021.

 ----------------------------------------------------------
 #P Geom=AllCheck Guess=TCheck SCRF=Check B3LYP/GTBas3 Freq
 ----------------------------------------------------------

 Structure from the checkpoint file:  "/public/home/users/caep010/.cache/gau_scr/Gau-58868.chk"
 ------
 MOTJOU
 ------
 Charge =  0 Multiplicity = 1

 SCF Done:  E(RB3LYP) =  -645.962976951     A.U. after    1 cycles

  Exact polarizability: 169.771  -5.385 104.547  -1.630  -8.524  71.336
 Approx polarizability: 247.462  -6.837 181.803  -6.195 -17.390 119.009

                      1                      2                      3
                      A                      A                      A
 Frequencies --     37.2149                53.5127                75.4556
 Red. masses --      4.3184                 4.7296                 4.3369
 Frc consts  --      0.0035                 0.0080                 0.0145
 IR Inten    --      2.9087                 1.4180                 0.4639

                      4                      5                      6
                      A                      A                      A
 Frequencies --    115.0912               140.8196               169.9365
 Red. masses --      4.3746                 3.4346                 1.3427
 Frc consts  --      0.0341                 0.0401                 0.0228
 IR Inten    --      3.7004                 1.5835                 1.2042

                      7                      8                      9
                      A                      A                      A
 Frequencies --    197.8683               241.9499               261.7422
 Red. masses --      2.7538                 2.4008                 1.5679
 Frc consts  --      0.0635                 0.0828                 0.0633
 IR Inten    --      3.6434                 1.0237                 0.5046

                     10                     11                     12
                      A                      A                      A
 Frequencies --    295.2503               386.5422               388.7237
 Red. masses --      4.0546                 4.9207                 5.3623
 Frc consts  --      0.2082                 0.4332                 0.4774
 IR Inten    --      2.9327                 1.0602                 2.0413

                     13                     14                     15
                      A                      A                      A
 Frequencies --    416.2467               427.6668               498.5388
 Red. masses --      4.5292                 3.2790                 4.1868
 Frc consts  --      0.4623                 0.3534                 0.6131
 IR Inten    --      0.8274                 0.3513                 1.6300

                     16                     17                     18
                      A                      A                      A
 Frequencies --    544.3192               609.3970               634.1018
 Red. masses --      2.7162                 6.2619                 4.7658
 Frc consts  --      0.4742                 1.3701                 1.1290
 IR Inten    --      6.4591                25.2114                13.7770

                     19                     20                     21
                      A                      A                      A
 Frequencies --    653.1619               747.9737               773.3100
 Red. masses --      6.3723                 4.1352                 6.8628
 Frc consts  --      1.6017                 1.3631                 2.4180
 IR Inten    --      2.9490                 5.2245                 1.4156

                     22                     23                     24
                      A                      A                      A
 Frequencies --    780.6507               827.3337               836.9486
 Red. masses --      8.5483                 1.2646                 6.0622
 Frc consts  --      3.0693                 0.5100                 2.5019
 IR Inten    --     12.1691                 1.1066                11.0789

                     25                     26                     27
                      A                      A                      A
 Frequencies --    858.3100               940.3393               956.7716
 Red. masses --      1.7401                 1.3415                 1.4763
 Frc consts  --      0.7553                 0.6989                 0.7962
 IR Inten    --     33.6719                 1.9459                12.7258

                     28                     29                     30
                      A                      A                      A
 Frequencies --    963.7419              1022.1557              1071.7641
 Red. masses --      2.8698                 2.7559                 6.5250
 Frc consts  --      1.5704                 1.6965                 4.4160
 IR Inten    --     46.1990                 3.6889                63.3068

                     31                     32                     33
                      A                      A                      A
 Frequencies --   1125.4402              1132.7335              1143.7976
 Red. masses --      2.4514                 1.3464                 1.3780
 Frc consts  --      1.8294                 1.0178                 1.0622
 IR Inten    --     42.1754                 5.7636                12.4881

                     34                     35                     36
                      A                      A                      A
 Frequencies --   1177.8300              1190.0790              1196.4701
 Red. masses --      1.2767                 2.4990                 1.1566
 Frc consts  --      1.0435                 2.0853                 0.9755
 IR Inten    --      0.9332                30.3887                30.7396

                     37                     38                     39
                      A                      A                      A
 Frequencies --   1211.0193              1293.8567              1325.9285
 Red. masses --      1.3912                 4.1154                 2.3443
 Frc consts  --      1.2021                 4.0592                 2.4283
 IR Inten    --      9.0634               343.7561               142.2626

                     40                     41                     42
                      A                      A                      A
 Frequencies --   1326.6501              1343.2558              1362.6144
 Red. masses --      2.1912                 6.0641                 5.2856
 Frc consts  --      2.2722                 6.4466                 5.7821
 IR Inten    --     51.4757                89.2331                78.2346

                     43                     44                     45
                      A                      A                      A
 Frequencies --   1451.5347              1455.6399              1478.0546
 Red. masses --      3.1317                 1.2186                 1.0840
 Frc consts  --      3.8876                 1.5213                 1.3953
 IR Inten    --      0.3863                53.3171                21.2280

                     46                     47                     48
                      A                      A                      A
 Frequencies --   1481.2348              1492.4238              1506.2901
 Red. masses --      1.2069                 1.0465                 1.0622
 Frc consts  --      1.5601                 1.3733                 1.4199
 IR Inten    --      7.0098                 6.0070                40.2493

                     49                     50                     51
                      A                      A                      A
 Frequencies --   1508.4336              1549.9032              1616.0280
 Red. masses --      1.0668                 2.5578                 6.9000
 Frc consts  --      1.4301                 3.6201                10.6169
 IR Inten    --     11.8934               137.7427                 5.8673

                     52                     53                     54
                      A                      A                      A
 Frequencies --   1647.9838              1655.3823              3008.4218
 Red. masses --      9.7507                 7.1428                 1.0344
 Frc consts  --     15.6025                11.5323                 5.5161
 IR Inten    --    334.6371                17.6537                51.1247

                     55                     56                     57
                      A                      A                      A
 Frequencies --   3038.2878              3069.7403              3119.1404
 Red. masses --      1.0427                 1.1049                 1.0920
 Frc consts  --      5.6709                 6.1344                 6.2598
 IR Inten    --     24.4403                33.7743                10.6776

                     58                     59                     60
                      A                      A                      A
 Frequencies --   3137.9676              3160.9694              3187.9255
 Red. masses --      1.0995                 1.1042                 1.0873
 Frc consts  --      6.3788                 6.5004                 6.5107
 IR Inten    --     21.4942                 7.7588                 6.9537

                     61                     62                     63
                      A                      A                      A
 Frequencies --   3206.1461              3208.9370              3223.6901
 Red. masses --      1.0941                 1.0875                 1.0938
 Frc consts  --      6.6264                 6.5981                 6.6975
 IR Inten    --      4.6012                 5.7569                 3.5105

 - Thermochemistry -
 -------------------
 Temperature   298.150 Kelvin.  Pressure   1.00000 Atm.
 Atom     1 has atomic number  6 and mass  12.00000

 Molecular mass:   182.06914 amu.
 Principal axes and moments of inertia in atomic units:
                           1         2         3
     Eigenvalues --   798.434974560.509325011.61776
           X            0.99968  -0.02538  -0.00220
           Y            0.02530   0.99926  -0.02906
           Z            0.00293   0.02900   0.99958
 This molecule is an asymmetric top.
 Rotational symmetry number  1.
 Warning -- assumption of classical behavior for rotation
           may cause significant error
 Rotational temperatures (Kelvin)      0.10848     0.01899     0.01728
 Rotational constants (GHZ):           2.26035     0.39573     0.36011
 Zero-point vibrational energy     472289.6 (Joules/Mol)
                                  112.87991 (Kcal/Mol)
 Warning -- explicit consideration of  17 degrees of freedom as
           vibrations may cause significant error
 Vibrational temperatures:     53.54    76.99   108.56   165.59   202.61
          (Kelvin)            244.50   284.69   348.11   376.59   424.80
                              556.15   559.29   598.89   615.32   717.29
                              783.15   876.79   912.33   939.75  1076.17
                             1112.62  1123.18  1190.35  1204.18  1234.92
                             1352.94  1376.58  1386.61  1470.65  1542.03
                             1619.26  1629.75  1645.67  1694.63  1712.26
                             1721.45  1742.38  1861.57  1907.71  1908.75
                             1932.64  1960.50  2088.43  2094.34  2126.59
                             2131.16  2147.26  2167.21  2170.30  2229.96
                             2325.10  2371.08  2381.72  4328.44  4371.41
                             4416.67  4487.74  4514.83  4547.92  4586.71
                             4612.92  4616.94  4638.17

 Zero-point correction=                           0.179886 (Hartree/Particle)
 Thermal correction to Energy=                    0.192088
 Thermal correction to Enthalpy=                  0.193032
 Thermal correction to Gibbs Free Energy=         0.140375
 Sum of electronic and zero-point Energies=           -645.783091
 Sum of electronic and thermal Energies=              -645.770889
 Sum of electronic and thermal Enthalpies=            -645.769945
 Sum of electronic and thermal Free Energies=         -645.822602

                     E (Thermal)             CV                S
                      KCal/Mol        Cal/Mol-Kelvin    Cal/Mol-Kelvin
 Total                  120.537             44.649            110.826
 Electronic               0.000              0.000              0.000
 Translational            0.889              2.981             41.504
 Rotational               0.889              2.981             31.279
 Vibrational            118.759             38.687             38.043
 Vibration     1          0.594              1.982              5.402
 Vibration     2          0.596              1.976              4.683
 Vibration     3          0.599              1.965              4.006
 Vibration     4          0.608              1.937              3.181
 Vibration     5          0.615              1.912              2.793
 Vibration     6          0.625              1.879              2.436
 Vibration     7          0.637              1.843              2.153
 Vibration     8          0.658              1.776              1.788
 Vibration     9          0.669              1.743              1.650
 Vibration    10          0.689              1.683              1.444
 Vibration    11          0.755              1.499              1.013
 Vibration    12          0.757              1.494              1.005
 Vibration    13          0.779              1.435              0.905
 Vibration    14          0.789              1.410              0.866
 Vibration    15          0.854              1.253              0.662
 Vibration    16          0.899              1.152              0.556
 Vibration    17          0.968              1.012              0.434

 Optimization completed.
    -- Stationary point found.
 Normal termination of Gaussian 09 at Thu Aug 26 15:38:15 2021.

 -----------------------------------------------------------------
 #P Geom=AllCheck Guess=TCheck SCRF=Check CCSD(T,E4T,FrzG4)/GTBas1
 -----------------------------------------------------------------

 Structure from the checkpoint file:  "/public/home/users/caep010/.cache/gau_scr/Gau-58868.chk"
 ------
 MOTJOU
 ------
 Charge =  0 Multiplicity = 1

 SCF Done:  E(RHF) =  -642.082603716     A.U. after   15 cycles
 E2 =    -0.1904069634D+01 EUMP2 =    -0.64398667334953D+03
 CCSD(T)
 CCSD(T)= -0.64411373879D+03
 P4SDTQ=-644.1286797\MP4SDQ=-644.0354444\CCSD=-644.0323443\CCSD(T)=-644
 Normal termination of Gaussian 09 at Thu Aug 26 17:22:26 2021.

 ---------------------------------------------------------
 #P Geom=AllCheck Guess=TCheck SCRF=Check MP4=FrzG4/GTBas2
 ---------------------------------------------------------

 Structure from the checkpoint file:  "/public/home/users/caep010/.cache/gau_scr/Gau-58868.chk"
 ------
 MOTJOU
 ------
 Charge =  0 Multiplicity = 1

 SCF Done:  E(RHF) =  -642.099354791     A.U. after   16 cycles
 E2 =    -0.1929408532D+01 EUMP2 =    -0.64402876332263D+03
 Normal termination of Gaussian 09 at Thu Aug 26 18:09:29 2021.

 ---------------------------------------------------------
 #P Geom=AllCheck Guess=TCheck SCRF=Check MP4=FrzG4/GTBas3
 ---------------------------------------------------------

 Structure from the checkpoint file:  "/public/home/users/caep010/.cache/gau_scr/Gau-58868.chk"
 ------
 MOTJOU
 ------
 Charge =  0 Multiplicity = 1

 SCF Done:  E(RHF) =  -642.149659298     A.U. after   13 cycles
 E2 =    -0.2294452130D+01 EUMP2 =    -0.64444411142796D+03
 Normal termination of Gaussian 09 at Fri Aug 27 00:24:46 2021.

 -----------------------------------------------------------
 #P Geom=AllCheck Guess=TCheck SCRF=Check MP2=Full/GTLargeXP
 -----------------------------------------------------------

 Structure from the checkpoint file:  "/public/home/users/caep010/.cache/gau_scr/Gau-58868.chk"
 ------
 MOTJOU
 ------
 Charge =  0 Multiplicity = 1

 SCF Done:  E(RHF) =  -642.305429545     A.U. after   15 cycles
 E2 =    -0.3005924256D+01 EUMP2 =    -0.64531135380077D+03
 Normal termination of Gaussian 09 at Fri Aug 27 00:38:02 2021.
 SCF Done:  E(RHF) =  -642.356674263     A.U. after   10 cycles
 Normal termination of Gaussian 09 at Fri Aug 27 00:45:45 2021.

                         Standard orientation:
 ---------------------------------------------------------------------
 Center     Atomic      Atomic             Coordinates (Angstroms)
 Number     Number       Type             X           Y           Z
 ---------------------------------------------------------------------
      1          6           0       -0.507550    0.246953    0.164196
      2          6           0        0.134613    1.302492   -0.490594
      3          6           0        1.513391    1.310864   -0.622771
      4          1           0        2.023998    2.124364   -1.124551
      5          6           0        2.276490    0.251072   -0.119472
      6          6           0        1.636506   -0.811051    0.527270
      7          1           0        2.201962   -1.642969    0.925673
      8          1           0       -0.447881    2.120502   -0.899997
      9          8           0        3.616974    0.347123   -0.306008
     10          7           0       -1.922381    0.277473    0.347766
     11          7           0       -2.706526   -0.682907   -0.277641
     12          6           0       -2.621821    1.481592    0.775914
     13          1           0       -3.453506    1.213775    1.428668
     14          1           0       -1.904606    2.089230    1.327545
     15          1           0       -3.020841    2.055134   -0.068450
     16          8           0       -2.142306   -1.657131   -0.752723
     17          6           0        4.440175   -0.700266    0.174911
     18          1           0        4.362787   -0.807504    1.264332
     19          1           0        4.192138   -1.658728   -0.298103
     20          1           0        5.462941   -0.424964   -0.086477
     21          8           0       -3.914920   -0.476212   -0.270879
     22          6           0        0.253070   -0.801542    0.673793
     23          1           0       -0.241864   -1.621733    1.177882
 ---------------------------------------------------------------------

 SCF Done:  E(RHF) =  -642.366761872     A.U. after    8 cycles

 The electronic state is 1-A.
 Alpha  occ. eigenvalues --  -20.59489 -20.58904 -20.58800 -15.87718 -15.64813
 Alpha  occ. eigenvalues --  -11.31563 -11.29407 -11.28581 -11.28118 -11.25790
 Alpha  occ. eigenvalues --  -11.25530 -11.24492 -11.24186  -1.61510  -1.42457
 Alpha  occ. eigenvalues --   -1.39881  -1.29787  -1.16123  -1.04180  -1.03703
 Alpha  occ. eigenvalues --   -1.00175  -0.96122  -0.87814  -0.85571  -0.80576
 Alpha  occ. eigenvalues --   -0.77249  -0.74586  -0.73765  -0.72867  -0.68504
 Alpha  occ. eigenvalues --   -0.66704  -0.66321  -0.64010  -0.61479  -0.60753
 Alpha  occ. eigenvalues --   -0.59593  -0.58613  -0.57020  -0.54329  -0.53720
 Alpha  occ. eigenvalues --   -0.50834  -0.50245  -0.49395  -0.47846  -0.45748
 Alpha  occ. eigenvalues --   -0.42720  -0.35834  -0.32090
 Alpha virt. eigenvalues --    0.02690   0.03026   0.04008   0.04807   0.04929
 Alpha virt. eigenvalues --    0.05310   0.05973   0.06913   0.06963   0.07237
 Alpha virt. eigenvalues --    0.08158   0.08530   0.09023   0.09074   0.09611

 Mulliken charges:
               1
     1  C    0.145304
     2  C   -0.184389
     3  C   -0.278780
     4  H    0.227090
     5  C    0.282047
     6  C   -0.206237
     7  H    0.203508
     8  H    0.218267
     9  O   -0.341756
    10  N   -0.016998
    11  N    0.594737
    12  C   -0.564139
    13  H    0.223366
    14  H    0.227343
    15  H    0.193320
    16  O   -0.443219
    17  C   -0.364907
    18  H    0.172552
    19  H    0.176046
    20  H    0.201475
    21  O   -0.453647
    22  C   -0.227827
    23  H    0.216845
 Sum of Mulliken charges =  -0.00000

 Dipole moment (field-independent basis, Debye):
    X=              3.6817    Y=              2.1392    Z=              2.1941  Tot=              4.7901
 Quadrupole moment (field-independent basis, Debye-Ang):
   XX=            -79.7596   YY=            -73.5343   ZZ=            -76.8881
   XY=            -14.6826   XZ=             -2.7189   YZ=             -4.7109

 Normal termination of Gaussian 09 at Fri Aug 27 01:37:00 2021.
