 Gaussian 09, Revision E.01,
 Gaussian 09:  ES64L-G09RevE.01 30-Nov-2015

 ----------------
 #P G4 OPT=calcfc
 ----------------

 ------
 MNIMET
 ------
 Symbolic Z-matrix:
 Charge =  0 Multiplicity = 1

 SCF Done:  E(RB3LYP) =  -623.804780168     A.U. after   15 cycles
 SCF Done:  E(RB3LYP) =  -623.886014681     A.U. after   12 cycles
 SCF Done:  E(RB3LYP) =  -623.918731128     A.U. after   14 cycles
 SCF Done:  E(RB3LYP) =  -623.920022093     A.U. after   12 cycles
 SCF Done:  E(RB3LYP) =  -623.920233681     A.U. after   12 cycles
 SCF Done:  E(RB3LYP) =  -623.920262756     A.U. after   11 cycles
 SCF Done:  E(RB3LYP) =  -623.920274697     A.U. after   11 cycles
 SCF Done:  E(RB3LYP) =  -623.920276683     A.U. after    9 cycles
 SCF Done:  E(RB3LYP) =  -623.920276824     A.U. after    8 cycles
 Optimization completed.
    -- Stationary point found.
 Normal termination of Gaussian 09 at Fri Aug 27 06:24:02 2021.

 ----------------------------------------------------------
 #P Geom=AllCheck Guess=TCheck SCRF=Check B3LYP/GTBas3 Freq
 ----------------------------------------------------------

 Structure from the checkpoint file:  "/public/home/users/caep010/.cache/gau_scr/Gau-25085.chk"
 ------
 MNIMET
 ------
 Charge =  0 Multiplicity = 1

 SCF Done:  E(RB3LYP) =  -623.920276824     A.U. after    1 cycles

  Exact polarizability: 122.655   7.653 108.618   8.118  -8.923  61.736
 Approx polarizability: 193.787  14.118 188.845  15.612 -24.434 101.534

                      1                      2                      3
                      A                      A                      A
 Frequencies --     48.7091                89.6307                93.4413
 Red. masses --      7.8258                 6.1536                 5.9605
 Frc consts  --      0.0109                 0.0291                 0.0307
 IR Inten    --      0.6380                 2.3071                 0.5459

                      4                      5                      6
                      A                      A                      A
 Frequencies --    125.2282               163.0033               165.3459
 Red. masses --      2.8335                 1.1500                 3.0591
 Frc consts  --      0.0262                 0.0180                 0.0493
 IR Inten    --      0.8710                 5.2018                 3.4199

                      7                      8                      9
                      A                      A                      A
 Frequencies --    224.1210               267.6252               288.4547
 Red. masses --      5.5135                 5.6802                 1.6771
 Frc consts  --      0.1632                 0.2397                 0.0822
 IR Inten    --      2.9258                 3.2647                84.0055

                     10                     11                     12
                      A                      A                      A
 Frequencies --    303.2641               354.8022               396.4115
 Red. masses --      1.9380                 2.6351                 3.7178
 Frc consts  --      0.1050                 0.1954                 0.3442
 IR Inten    --     37.8820                11.9102                 4.7210

                     13                     14                     15
                      A                      A                      A
 Frequencies --    421.5239               502.3715               564.3737
 Red. masses --      3.6571                 2.8605                 3.8918
 Frc consts  --      0.3828                 0.4253                 0.7304
 IR Inten    --      0.6457                10.8098                 2.7615

                     16                     17                     18
                      A                      A                      A
 Frequencies --    620.7925               653.3332               697.5168
 Red. masses --      4.3693                 3.9800                 4.5245
 Frc consts  --      0.9921                 1.0009                 1.2970
 IR Inten    --      1.1327                 2.3878                 6.4078

                     19                     20                     21
                      A                      A                      A
 Frequencies --    744.3969               774.7820               838.7657
 Red. masses --      3.9314                 8.9526                12.1627
 Frc consts  --      1.2835                 3.1664                 5.0415
 IR Inten    --      0.0372                11.9865                31.2989

                     22                     23                     24
                      A                      A                      A
 Frequencies --    871.4263               904.6445               956.4471
 Red. masses --      2.5565                 1.4558                 2.3243
 Frc consts  --      1.1438                 0.7020                 1.2527
 IR Inten    --      8.2612                 6.2478                 9.1067

                     25                     26                     27
                      A                      A                      A
 Frequencies --    973.3675              1006.8823              1065.3212
 Red. masses --      2.7152                 1.5943                 1.6152
 Frc consts  --      1.5157                 0.9523                 1.0800
 IR Inten    --     11.8773                13.3460                 3.5537

                     28                     29                     30
                      A                      A                      A
 Frequencies --   1070.1940              1092.8023              1178.2122
 Red. masses --      1.7434                 4.4840                 1.8794
 Frc consts  --      1.1765                 3.1550                 1.5372
 IR Inten    --     11.8851                52.3141                34.0012

                     31                     32                     33
                      A                      A                      A
 Frequencies --   1199.9381              1224.8051              1282.4921
 Red. masses --      1.5100                 3.1301                 1.4907
 Frc consts  --      1.2810                 2.7665                 1.4446
 IR Inten    --     38.8645                59.5906                14.6142

                     34                     35                     36
                      A                      A                      A
 Frequencies --   1302.0709              1378.9571              1389.3326
 Red. masses --      5.3272                 2.1055                 1.4280
 Frc consts  --      5.3213                 2.3589                 1.6241
 IR Inten    --    134.4719                17.1090                52.5158

                     37                     38                     39
                      A                      A                      A
 Frequencies --   1391.5635              1398.0679              1407.3605
 Red. masses --      1.4462                 1.2407                 1.8771
 Frc consts  --      1.6500                 1.4288                 2.1905
 IR Inten    --     60.5561                11.7599                48.4615

                     40                     41                     42
                      A                      A                      A
 Frequencies --   1418.6388              1458.9938              1468.9033
 Red. masses --      2.1555                 2.0379                 1.1486
 Frc consts  --      2.5559                 2.5559                 1.4602
 IR Inten    --     86.5969               135.5812                27.7756

                     43                     44                     45
                      A                      A                      A
 Frequencies --   1483.1300              1494.8350              1506.6225
 Red. masses --      1.0829                 1.1598                 2.0465
 Frc consts  --      1.4035                 1.5269                 2.7370
 IR Inten    --     18.7139                 7.2065                36.3856

                     46                     47                     48
                      A                      A                      A
 Frequencies --   1510.5361              1552.3596              1600.4622
 Red. masses --      3.9015                 4.6024                10.8017
 Frc consts  --      5.2450                 6.5346                16.3017
 IR Inten    --    154.0991                16.7904               212.7010

                     49                     50                     51
                      A                      A                      A
 Frequencies --   3017.0072              3038.0557              3077.1153
 Red. masses --      1.0693                 1.0438                 1.0660
 Frc consts  --      5.7345                 5.6764                 5.9472
 IR Inten    --     43.2043                13.6365                17.0462

                     52                     53                     54
                      A                      A                      A
 Frequencies --   3107.2240              3116.4934              3154.0880
 Red. masses --      1.0922                 1.0941                 1.0990
 Frc consts  --      6.2132                 6.2612                 6.4417
 IR Inten    --      5.1000                17.7730                 1.8382

                     55                     56                     57
                      A                      A                      A
 Frequencies --   3159.2708              3274.4878              3828.2884
 Red. masses --      1.1001                 1.0978                 1.0667
 Frc consts  --      6.4693                 6.9353                 9.2105
 IR Inten    --      1.5407                 0.9083                30.8689

 - Thermochemistry -
 -------------------
 Temperature   298.150 Kelvin.  Pressure   1.00000 Atm.
 Atom     1 has atomic number  7 and mass  14.00307

 Molecular mass:   171.06439 amu.
 Principal axes and moments of inertia in atomic units:
                           1         2         3
     Eigenvalues --  1409.394592115.816933190.09946
           X            0.99977  -0.01789   0.01220
           Y            0.01792   0.99984  -0.00274
           Z           -0.01215   0.00296   0.99992
 This molecule is an asymmetric top.
 Rotational symmetry number  1.
 Warning -- assumption of classical behavior for rotation
           may cause significant error
 Rotational temperatures (Kelvin)      0.06145     0.04094     0.02715
 Rotational constants (GHZ):           1.28051     0.85298     0.56573
 Zero-point vibrational energy     428851.0 (Joules/Mol)
                                  102.49785 (Kcal/Mol)
 Warning -- explicit consideration of  15 degrees of freedom as
           vibrations may cause significant error
 Vibrational temperatures:     70.08   128.96   134.44   180.18   234.53
          (Kelvin)            237.90   322.46   385.05   415.02   436.33
                              510.48   570.35   606.48   722.80   812.01
                              893.18   940.00  1003.57  1071.02  1114.74
                             1206.80  1253.79  1301.58  1376.11  1400.46
                             1448.68  1532.76  1539.77  1572.30  1695.18
                             1726.44  1762.22  1845.22  1873.39  1984.01
                             1998.94  2002.15  2011.51  2024.88  2041.10
                             2099.16  2113.42  2133.89  2150.73  2167.69
                             2173.32  2233.50  2302.71  4340.79  4371.08
                             4427.28  4470.60  4483.93  4538.02  4545.48
                             4711.25  5508.05

 Zero-point correction=                           0.163341 (Hartree/Particle)
 Thermal correction to Energy=                    0.174754
 Thermal correction to Enthalpy=                  0.175698
 Thermal correction to Gibbs Free Energy=         0.125509
 Sum of electronic and zero-point Energies=           -623.756936
 Sum of electronic and thermal Energies=              -623.745523
 Sum of electronic and thermal Enthalpies=            -623.744578
 Sum of electronic and thermal Free Energies=         -623.794767

                     E (Thermal)             CV                S
                      KCal/Mol        Cal/Mol-Kelvin    Cal/Mol-Kelvin
 Total                  109.660             41.330            105.632
 Electronic               0.000              0.000              0.000
 Translational            0.889              2.981             41.318
 Rotational               0.889              2.981             30.632
 Vibrational            107.882             35.368             33.681
 Vibration     1          0.595              1.978              4.869
 Vibration     2          0.602              1.957              3.668
 Vibration     3          0.602              1.954              3.587
 Vibration     4          0.610              1.928              3.018
 Vibration     5          0.623              1.888              2.515
 Vibration     6          0.624              1.885              2.488
 Vibration     7          0.649              1.804              1.926
 Vibration     8          0.673              1.733              1.612
 Vibration     9          0.685              1.695              1.483
 Vibration    10          0.695              1.668              1.399
 Vibration    11          0.731              1.565              1.145
 Vibration    12          0.763              1.478              0.976
 Vibration    13          0.784              1.423              0.887
 Vibration    14          0.858              1.245              0.652
 Vibration    15          0.920              1.108              0.515

 Optimization completed.
    -- Stationary point found.
 Normal termination of Gaussian 09 at Fri Aug 27 06:26:45 2021.

 -----------------------------------------------------------------
 #P Geom=AllCheck Guess=TCheck SCRF=Check CCSD(T,E4T,FrzG4)/GTBas1
 -----------------------------------------------------------------

 Structure from the checkpoint file:  "/public/home/users/caep010/.cache/gau_scr/Gau-25085.chk"
 ------
 MNIMET
 ------
 Charge =  0 Multiplicity = 1

 SCF Done:  E(RHF) =  -620.233712557     A.U. after   15 cycles
 E2 =    -0.1821095723D+01 EUMP2 =    -0.62205480827988D+03
 CCSD(T)
 CCSD(T)= -0.62216804515D+03
 SDQ=-622.0971574\CCSD=-622.0933235\CCSD(T)=-622.1680451\RMSD=7.205e-09
 Normal termination of Gaussian 09 at Fri Aug 27 07:33:13 2021.

 ---------------------------------------------------------
 #P Geom=AllCheck Guess=TCheck SCRF=Check MP4=FrzG4/GTBas2
 ---------------------------------------------------------

 Structure from the checkpoint file:  "/public/home/users/caep010/.cache/gau_scr/Gau-25085.chk"
 ------
 MNIMET
 ------
 Charge =  0 Multiplicity = 1

 SCF Done:  E(RHF) =  -620.250653548     A.U. after   14 cycles
 E2 =    -0.1846776228D+01 EUMP2 =    -0.62209742977621D+03
 Normal termination of Gaussian 09 at Fri Aug 27 07:59:27 2021.

 ---------------------------------------------------------
 #P Geom=AllCheck Guess=TCheck SCRF=Check MP4=FrzG4/GTBas3
 ---------------------------------------------------------

 Structure from the checkpoint file:  "/public/home/users/caep010/.cache/gau_scr/Gau-25085.chk"
 ------
 MNIMET
 ------
 Charge =  0 Multiplicity = 1

 SCF Done:  E(RHF) =  -620.302185287     A.U. after   12 cycles
 E2 =    -0.2192995291D+01 EUMP2 =    -0.62249518057804D+03
 Normal termination of Gaussian 09 at Fri Aug 27 11:53:12 2021.

 -----------------------------------------------------------
 #P Geom=AllCheck Guess=TCheck SCRF=Check MP2=Full/GTLargeXP
 -----------------------------------------------------------

 Structure from the checkpoint file:  "/public/home/users/caep010/.cache/gau_scr/Gau-25085.chk"
 ------
 MNIMET
 ------
 Charge =  0 Multiplicity = 1

 SCF Done:  E(RHF) =  -620.457379714     A.U. after   15 cycles
 E2 =    -0.2861157645D+01 EUMP2 =    -0.62331853735842D+03
 Normal termination of Gaussian 09 at Fri Aug 27 12:16:12 2021.
 SCF Done:  E(RHF) =  -620.505871897     A.U. after   10 cycles
 Normal termination of Gaussian 09 at Fri Aug 27 12:22:36 2021.

                         Standard orientation:
 ---------------------------------------------------------------------
 Center     Atomic      Atomic             Coordinates (Angstroms)
 Number     Number       Type             X           Y           Z
 ---------------------------------------------------------------------
      1          7           0        0.283858    0.213233    0.366033
      2          6           0        0.944229    1.385230    0.143539
      3          7           0        0.139841    2.335682   -0.325079
      4          6           0       -1.088772    1.773010   -0.417262
      5          6           0       -1.033925    0.461719   -0.001679
      6          7           0       -2.094401   -0.479252    0.037766
      7          8           0       -1.845323   -1.645393    0.365888
      8          8           0       -3.209403   -0.068418   -0.268145
      9          6           0        2.400109    1.580848    0.395075
     10          6           0        0.871359   -1.023367    0.885304
     11          6           0        1.276515   -1.999741   -0.224044
     12          8           0        2.319007   -1.501153   -1.047930
     13          1           0       -1.956623    2.303549   -0.774512
     14          1           0        0.145592   -1.499720    1.542516
     15          1           0        2.991476    0.863689   -0.179764
     16          1           0        2.653959    1.463865    1.455289
     17          1           0        0.415541   -2.180934   -0.871373
     18          1           0        1.546889   -2.957767    0.241053
     19          1           0        1.746410   -0.741404    1.476929
     20          1           0        3.158711   -1.679169   -0.613946
     21          1           0        2.661615    2.593770    0.088652
 ---------------------------------------------------------------------

 SCF Done:  E(RHF) =  -620.515727560     A.U. after    8 cycles

 The electronic state is 1-A.
 Alpha  occ. eigenvalues --  -20.59593 -20.59547 -20.58130 -15.85855 -15.65027
 Alpha  occ. eigenvalues --  -15.56585 -11.33746 -11.31983 -11.30118 -11.29833
 Alpha  occ. eigenvalues --  -11.29135 -11.25424  -1.60162  -1.39450  -1.38880
 Alpha  occ. eigenvalues --   -1.37483  -1.21666  -1.11795  -1.04373  -1.02187
 Alpha  occ. eigenvalues --   -0.92760  -0.89716  -0.82648  -0.79622  -0.77011
 Alpha  occ. eigenvalues --   -0.72831  -0.72427  -0.70956  -0.68890  -0.67248
 Alpha  occ. eigenvalues --   -0.64839  -0.61930  -0.60842  -0.59075  -0.57434
 Alpha  occ. eigenvalues --   -0.57237  -0.56396  -0.52225  -0.50269  -0.49351
 Alpha  occ. eigenvalues --   -0.48357  -0.45903  -0.45715  -0.41450  -0.34791
 Alpha virt. eigenvalues --    0.01853   0.03349   0.03606   0.04307   0.04471
 Alpha virt. eigenvalues --    0.05630   0.05878   0.06064   0.06581   0.06895
 Alpha virt. eigenvalues --    0.08284   0.08662   0.08887   0.09133   0.09421

 Mulliken charges:
               1
     1  N    0.051154
     2  C    0.434348
     3  N   -0.520440
     4  C   -0.006718
     5  C    0.098514
     6  N    0.484134
     7  O   -0.455273
     8  O   -0.441210
     9  C   -0.663699
    10  C   -0.343383
    11  C   -0.142586
    12  O   -0.579128
    13  H    0.269764
    14  H    0.227282
    15  H    0.216919
    16  H    0.200804
    17  H    0.198515
    18  H    0.164111
    19  H    0.209531
    20  H    0.366777
    21  H    0.230583
 Sum of Mulliken charges =  -0.00000

 Dipole moment (field-independent basis, Debye):
    X=              5.5483    Y=             -0.8424    Z=              2.4806  Tot=              6.1357
 Quadrupole moment (field-independent basis, Debye-Ang):
   XX=            -71.8077   YY=            -74.1200   ZZ=            -71.3217
   XY=             -7.5764   XZ=              5.6301   YZ=             -1.0757

 Normal termination of Gaussian 09 at Fri Aug 27 13:04:51 2021.
