 Gaussian 09, Revision E.01,
 Gaussian 09:  ES64L-G09RevE.01 30-Nov-2015

 -----
 #P G4
 -----

 ------
 MADKUZ
 ------
 Symbolic Z-matrix:
 Charge =  0 Multiplicity = 1

 SCF Done:  E(RB3LYP) =  -685.106544643     A.U. after   15 cycles
 SCF Done:  E(RB3LYP) =  -685.224208043     A.U. after   12 cycles
 SCF Done:  E(RB3LYP) =  -685.304772018     A.U. after   13 cycles
 SCF Done:  E(RB3LYP) =  -685.303524416     A.U. after   15 cycles
 SCF Done:  E(RB3LYP) =  -685.305407324     A.U. after   10 cycles
 SCF Done:  E(RB3LYP) =  -685.301491752     A.U. after   14 cycles
 SCF Done:  E(RB3LYP) =  -685.306191575     A.U. after   10 cycles
 SCF Done:  E(RB3LYP) =  -685.306359400     A.U. after   12 cycles
 SCF Done:  E(RB3LYP) =  -685.306368957     A.U. after   13 cycles
 SCF Done:  E(RB3LYP) =  -685.306446151     A.U. after   12 cycles
 SCF Done:  E(RB3LYP) =  -685.306477981     A.U. after    9 cycles
 SCF Done:  E(RB3LYP) =  -685.306478664     A.U. after    7 cycles
 SCF Done:  E(RB3LYP) =  -685.306478700     A.U. after    7 cycles
 Optimization completed.
    -- Stationary point found.
 Normal termination of Gaussian 09 at Tue Aug 24 15:20:28 2021.

 ----------------------------------------------------------
 #P Geom=AllCheck Guess=TCheck SCRF=Check B3LYP/GTBas3 Freq
 ----------------------------------------------------------

 Structure from the checkpoint file:  "/public/home/users/caep010/.cache/gau_scr/Gau-9336.chk"
 ------
 MADKUZ
 ------
 Charge =  0 Multiplicity = 1

 SCF Done:  E(RB3LYP) =  -685.306478700     A.U. after    1 cycles

  Exact polarizability: 145.225  -3.398 117.329  -5.173  -8.822  85.801
 Approx polarizability: 212.090 -11.846 209.084 -10.666 -28.729 144.207

                      1                      2                      3
                      A                      A                      A
 Frequencies --     47.4313                58.2300                76.6531
 Red. masses --      4.3258                 8.6995                 5.3405
 Frc consts  --      0.0057                 0.0174                 0.0185
 IR Inten    --      1.8008                 0.5749                 1.3057

                      4                      5                      6
                      A                      A                      A
 Frequencies --     92.0155               183.7842               223.4658
 Red. masses --      5.4441                 4.6077                 2.7746
 Frc consts  --      0.0272                 0.0917                 0.0816
 IR Inten    --      3.3487                 4.0945                 1.6186

                      7                      8                      9
                      A                      A                      A
 Frequencies --    228.5796               245.3873               260.9298
 Red. masses --      1.3926                 2.8768                 1.2407
 Frc consts  --      0.0429                 0.1021                 0.0498
 IR Inten    --      1.4393                 5.8809                 0.1491

                     10                     11                     12
                      A                      A                      A
 Frequencies --    268.1130               274.6991               295.5673
 Red. masses --      2.4209                 1.2752                 3.1794
 Frc consts  --      0.1025                 0.0567                 0.1636
 IR Inten    --     10.0897                89.9768                 5.3039

                     13                     14                     15
                      A                      A                      A
 Frequencies --    347.3452               355.6377               393.7396
 Red. masses --      3.7805                 3.2428                 2.6186
 Frc consts  --      0.2687                 0.2417                 0.2392
 IR Inten    --      2.9140                 3.7957                 0.1818

                     16                     17                     18
                      A                      A                      A
 Frequencies --    394.4922               496.4006               536.2437
 Red. masses --      3.8508                 5.4247                 5.5143
 Frc consts  --      0.3531                 0.7876                 0.9343
 IR Inten    --      1.0006                 6.7916                 3.9780

                     19                     20                     21
                      A                      A                      A
 Frequencies --    538.5958               612.5263               676.9558
 Red. masses --      4.1448                 4.1094                 4.5232
 Frc consts  --      0.7084                 0.9084                 1.2213
 IR Inten    --     18.9849                24.7609                 6.7853

                     22                     23                     24
                      A                      A                      A
 Frequencies --    682.0240               739.1102               768.6975
 Red. masses --      5.7705                 6.7538                 3.8701
 Frc consts  --      1.5815                 2.1738                 1.3474
 IR Inten    --      4.7806                 2.0395                 4.9415

                     25                     26                     27
                      A                      A                      A
 Frequencies --    793.0485               858.0156               865.4046
 Red. masses --      2.6198                 1.5906                 8.1928
 Frc consts  --      0.9708                 0.6899                 3.6151
 IR Inten    --     10.9495                17.5349                36.3711

                     28                     29                     30
                      A                      A                      A
 Frequencies --    887.1234               911.6325               953.1849
 Red. masses --      3.4691                 1.2428                 1.4485
 Frc consts  --      1.6086                 0.6086                 0.7754
 IR Inten    --      8.2298                 0.1631                 0.4114

                     31                     32                     33
                      A                      A                      A
 Frequencies --    973.5025               998.1424              1008.0401
 Red. masses --      1.9053                 1.3684                 1.4670
 Frc consts  --      1.0639                 0.8033                 0.8783
 IR Inten    --      1.4993                 0.7079                 0.2079

                     34                     35                     36
                      A                      A                      A
 Frequencies --   1009.5564              1023.0419              1085.2381
 Red. masses --      6.5824                 1.3844                 3.6050
 Frc consts  --      3.9527                 0.8537                 2.5015
 IR Inten    --      4.3575                10.9025                37.2286

                     37                     38                     39
                      A                      A                      A
 Frequencies --   1091.7062              1116.9306              1157.7934
 Red. masses --      1.8458                 1.8152                 1.7039
 Frc consts  --      1.2961                 1.3342                 1.3458
 IR Inten    --      3.2247                18.5824                11.4148

                     40                     41                     42
                      A                      A                      A
 Frequencies --   1181.4757              1219.2155              1242.1589
 Red. masses --      1.8549                 2.5133                 2.3408
 Frc consts  --      1.5255                 2.2012                 2.1280
 IR Inten    --     28.4175                 3.0739                20.0570

                     43                     44                     45
                      A                      A                      A
 Frequencies --   1248.8438              1281.9374              1310.5454
 Red. masses --      1.3640                 6.7714                 1.8905
 Frc consts  --      1.2534                 6.5564                 1.9130
 IR Inten    --      7.8908                 1.5417                40.7893

                     46                     47                     48
                      A                      A                      A
 Frequencies --   1330.9942              1363.3480              1394.1229
 Red. masses --      1.7317                 1.3646                 1.7462
 Frc consts  --      1.8075                 1.4945                 1.9997
 IR Inten    --      6.3871                11.3382                44.3089

                     49                     50                     51
                      A                      A                      A
 Frequencies --   1404.2702              1411.1779              1441.5270
 Red. masses --      1.4012                 1.5005                 1.9544
 Frc consts  --      1.6280                 1.7605                 2.3929
 IR Inten    --     14.9103                22.5836                55.5168

                     52                     53                     54
                      A                      A                      A
 Frequencies --   1445.1289              1478.5972              1482.8785
 Red. masses --      1.9116                 1.0508                 1.0503
 Frc consts  --      2.3521                 1.3535                 1.3607
 IR Inten    --     18.0196                 1.4962                 1.3519

                     55                     56                     57
                      A                      A                      A
 Frequencies --   1497.7984              1509.5954              1525.0943
 Red. masses --      1.0552                 1.0628                 2.1053
 Frc consts  --      1.3948                 1.4270                 2.8851
 IR Inten    --     11.4575                17.5088                 0.9830

                     58                     59                     60
                      A                      A                      A
 Frequencies --   1602.3648              1633.8706              1656.5561
 Red. masses --      7.0161                 5.5086                13.2381
 Frc consts  --     10.6138                 8.6641                21.4037
 IR Inten    --     19.3334                44.6279               220.2643

                     61                     62                     63
                      A                      A                      A
 Frequencies --   3035.7354              3055.4247              3066.4078
 Red. masses --      1.0834                 1.0352                 1.0374
 Frc consts  --      5.8825                 5.6942                 5.7470
 IR Inten    --      9.7763                 7.1048                 8.6309

                     64                     65                     66
                      A                      A                      A
 Frequencies --   3128.5121              3139.0150              3145.1974
 Red. masses --      1.1012                 1.0996                 1.1027
 Frc consts  --      6.3502                 6.3839                 6.4272
 IR Inten    --      8.1623                15.8013                 7.2216

                     67                     68                     69
                      A                      A                      A
 Frequencies --   3153.7566              3156.2576              3164.8148
 Red. masses --      1.0867                 1.0904                 1.1019
 Frc consts  --      6.3684                 6.3997                 6.5028
 IR Inten    --     26.3626                13.7519                 4.0779

                     70                     71                     72
                      A                      A                      A
 Frequencies --   3185.1094              3210.6782              3825.8105
 Red. masses --      1.0932                 1.0919                 1.0665
 Frc consts  --      6.5342                 6.6315                 9.1973
 IR Inten    --     10.7161                 2.8378                40.3119

 - Thermochemistry -
 -------------------
 Temperature   298.150 Kelvin.  Pressure   1.00000 Atm.
 Atom     1 has atomic number  6 and mass  12.00000

 Molecular mass:   196.08479 amu.
 Principal axes and moments of inertia in atomic units:
                           1         2         3
     Eigenvalues --  1127.474824370.942104597.90943
           X            0.99996   0.00119   0.00841
           Y           -0.00115   0.99998  -0.00543
           Z           -0.00842   0.00542   0.99995
 This molecule is an asymmetric top.
 Rotational symmetry number  1.
 Warning -- assumption of classical behavior for rotation
           may cause significant error
 Rotational temperatures (Kelvin)      0.07682     0.01982     0.01884
 Rotational constants (GHZ):           1.60069     0.41290     0.39251
 Zero-point vibrational energy     547035.6 (Joules/Mol)
                                  130.74464 (Kcal/Mol)
 Warning -- explicit consideration of  20 degrees of freedom as
           vibrations may cause significant error
 Vibrational temperatures:     68.24    83.78   110.29   132.39   264.42
          (Kelvin)            321.52   328.87   353.06   375.42   385.75
                              395.23   425.25   499.75   511.68   566.50
                              567.59   714.21   771.53   774.92   881.29
                              973.99   981.28  1063.41  1105.98  1141.02
                             1234.49  1245.12  1276.37  1311.63  1371.42
                             1400.65  1436.10  1450.34  1452.52  1471.93
                             1561.41  1570.72  1607.01  1665.80  1699.88
                             1754.18  1787.19  1796.81  1844.42  1885.58
                             1915.00  1961.55  2005.83  2020.43  2030.37
                             2074.03  2079.22  2127.37  2133.53  2155.00
                             2171.97  2194.27  2305.44  2350.77  2383.41
                             4367.74  4396.07  4411.87  4501.23  4516.34
                             4525.23  4537.55  4541.15  4553.46  4582.66
                             4619.44  5504.48

 Zero-point correction=                           0.208355 (Hartree/Particle)
 Thermal correction to Energy=                    0.221669
 Thermal correction to Enthalpy=                  0.222613
 Thermal correction to Gibbs Free Energy=         0.168386
 Sum of electronic and zero-point Energies=           -685.098124
 Sum of electronic and thermal Energies=              -685.084810
 Sum of electronic and thermal Enthalpies=            -685.083866
 Sum of electronic and thermal Free Energies=         -685.138093

                     E (Thermal)             CV                S
                      KCal/Mol        Cal/Mol-Kelvin    Cal/Mol-Kelvin
 Total                  139.099             50.345            114.129
 Electronic               0.000              0.000              0.000
 Translational            0.889              2.981             41.725
 Rotational               0.889              2.981             31.494
 Vibrational            137.322             44.384             40.910
 Vibration     1          0.595              1.979              4.922
 Vibration     2          0.596              1.974              4.516
 Vibration     3          0.599              1.965              3.975
 Vibration     4          0.602              1.955              3.617
 Vibration     5          0.631              1.862              2.290
 Vibration     6          0.649              1.805              1.931
 Vibration     7          0.651              1.797              1.890
 Vibration     8          0.660              1.770              1.763
 Vibration     9          0.669              1.744              1.656
 Vibration    10          0.673              1.732              1.608
 Vibration    11          0.677              1.720              1.566
 Vibration    12          0.690              1.682              1.442
 Vibration    13          0.725              1.581              1.178
 Vibration    14          0.731              1.564              1.141
 Vibration    15          0.761              1.484              0.986
 Vibration    16          0.761              1.482              0.983
 Vibration    17          0.852              1.258              0.667
 Vibration    18          0.891              1.170              0.573
 Vibration    19          0.894              1.165              0.568
 Vibration    20          0.972              1.005              0.429

 Optimization completed.
    -- Stationary point found.
 Normal termination of Gaussian 09 at Tue Aug 24 15:25:13 2021.

 -----------------------------------------------------------------
 #P Geom=AllCheck Guess=TCheck SCRF=Check CCSD(T,E4T,FrzG4)/GTBas1
 -----------------------------------------------------------------

 Structure from the checkpoint file:  "/public/home/users/caep010/.cache/gau_scr/Gau-9336.chk"
 ------
 MADKUZ
 ------
 Charge =  0 Multiplicity = 1

 SCF Done:  E(RHF) =  -681.153591843     A.U. after   14 cycles
 E2 =    -0.2045230512D+01 EUMP2 =    -0.68319882235533D+03
 CCSD(T)
 CCSD(T)= -0.68334230677D+03
 65381\MP4SDQ=-683.2592127\CCSD=-683.255967\CCSD(T)=-683.3423068\RMSD=6
 Normal termination of Gaussian 09 at Tue Aug 24 17:56:37 2021.

 ---------------------------------------------------------
 #P Geom=AllCheck Guess=TCheck SCRF=Check MP4=FrzG4/GTBas2
 ---------------------------------------------------------

 Structure from the checkpoint file:  "/public/home/users/caep010/.cache/gau_scr/Gau-9336.chk"
 ------
 MADKUZ
 ------
 Charge =  0 Multiplicity = 1

 SCF Done:  E(RHF) =  -681.172353330     A.U. after   14 cycles
 E2 =    -0.2074951026D+01 EUMP2 =    -0.68324730435505D+03
 Normal termination of Gaussian 09 at Tue Aug 24 18:50:33 2021.

 ---------------------------------------------------------
 #P Geom=AllCheck Guess=TCheck SCRF=Check MP4=FrzG4/GTBas3
 ---------------------------------------------------------

 Structure from the checkpoint file:  "/public/home/users/caep010/.cache/gau_scr/Gau-9336.chk"
 ------
 MADKUZ
 ------
 Charge =  0 Multiplicity = 1

 SCF Done:  E(RHF) =  -681.226351968     A.U. after   12 cycles
 E2 =    -0.2467445426D+01 EUMP2 =    -0.68369379739395D+03
 Normal termination of Gaussian 09 at Wed Aug 25 07:37:58 2021.

 -----------------------------------------------------------
 #P Geom=AllCheck Guess=TCheck SCRF=Check MP2=Full/GTLargeXP
 -----------------------------------------------------------

 Structure from the checkpoint file:  "/public/home/users/caep010/.cache/gau_scr/Gau-9336.chk"
 ------
 MADKUZ
 ------
 Charge =  0 Multiplicity = 1

 SCF Done:  E(RHF) =  -681.391773353     A.U. after   15 cycles
 E2 =    -0.3233073522D+01 EUMP2 =    -0.68462484687458D+03
 Normal termination of Gaussian 09 at Wed Aug 25 08:00:56 2021.
 SCF Done:  E(RHF) =  -681.444752272     A.U. after    9 cycles
 Normal termination of Gaussian 09 at Wed Aug 25 08:10:55 2021.

                         Standard orientation:
 ---------------------------------------------------------------------
 Center     Atomic      Atomic             Coordinates (Angstroms)
 Number     Number       Type             X           Y           Z
 ---------------------------------------------------------------------
      1          6           0       -3.234729   -1.036741    0.303763
      2          6           0       -1.881490   -1.162650    0.002884
      3          6           0       -1.163105   -0.027250   -0.374820
      4          6           0       -1.864103    1.177691   -0.448825
      5          6           0       -3.217785    1.196682   -0.125314
      6          6           0        0.312359   -0.104758   -0.730609
      7          6           0        1.262202    0.153573    0.471770
      8          8           0        0.674456   -1.381563   -1.234043
      9          6           0        1.079832    1.550694    1.071793
     10          6           0        1.196909   -0.940278    1.530122
     11          7           0       -3.907137    0.116230    0.250051
     12          7           0        2.683551    0.158030   -0.160945
     13          8           0        2.867054    0.939229   -1.083327
     14          8           0        3.527878   -0.579961    0.310872
     15          1           0       -3.808762   -1.911297    0.601300
     16          1           0       -1.392906   -2.128445    0.046025
     17          1           0       -1.369958    2.090736   -0.764821
     18          1           0       -3.777089    2.127877   -0.178355
     19          1           0        0.537595    0.675957   -1.467239
     20          1           0        1.933416   -0.759513    2.314205
     21          1           0        1.386677   -1.920996    1.095294
     22          1           0        0.252328   -1.500662   -2.090759
     23          1           0        1.834933    1.727832    1.842746
     24          1           0        1.177202    2.324300    0.307578
     25          1           0        0.200900   -0.937022    1.980594
     26          1           0        0.095108    1.627994    1.537086
 ---------------------------------------------------------------------

 SCF Done:  E(RHF) =  -681.455374133     A.U. after    8 cycles

 The electronic state is 1-A.
 Alpha  occ. eigenvalues --  -20.59937 -20.59255 -20.58757 -15.83656 -15.57688
 Alpha  occ. eigenvalues --  -11.32641 -11.32578 -11.28852 -11.28765 -11.28100
 Alpha  occ. eigenvalues --  -11.25672 -11.25315 -11.25008 -11.23607  -1.59943
 Alpha  occ. eigenvalues --   -1.40097  -1.39528  -1.27270  -1.15725  -1.11116
 Alpha  occ. eigenvalues --   -1.04799  -0.96958  -0.96905  -0.95162  -0.87400
 Alpha  occ. eigenvalues --   -0.85213  -0.79536  -0.75104  -0.72824  -0.72567
 Alpha  occ. eigenvalues --   -0.71683  -0.70585  -0.67721  -0.66499  -0.64109
 Alpha  occ. eigenvalues --   -0.61797  -0.60857  -0.59125  -0.57929  -0.57419
 Alpha  occ. eigenvalues --   -0.56739  -0.55588  -0.53117  -0.52158  -0.50768
 Alpha  occ. eigenvalues --   -0.49636  -0.48217  -0.47128  -0.44981  -0.43199
 Alpha  occ. eigenvalues --   -0.39210  -0.36268
 Alpha virt. eigenvalues --    0.02382   0.03245   0.03433   0.03996   0.05038
 Alpha virt. eigenvalues --    0.05392   0.05438   0.05773   0.06559   0.07395
 Alpha virt. eigenvalues --    0.07675   0.07897   0.08056   0.08299   0.08577

 Mulliken charges:
               1
     1  C   -0.015367
     2  C   -0.298815
     3  C    0.308359
     4  C   -0.331394
     5  C    0.009493
     6  C   -0.054313
     7  C    0.490637
     8  O   -0.606016
     9  C   -0.664885
    10  C   -0.680524
    11  N   -0.572516
    12  N    0.490106
    13  O   -0.460291
    14  O   -0.428707
    15  H    0.227218
    16  H    0.250064
    17  H    0.205911
    18  H    0.226184
    19  H    0.243892
    20  H    0.207073
    21  H    0.219746
    22  H    0.393573
    23  H    0.208539
    24  H    0.211183
    25  H    0.208776
    26  H    0.212074
 Sum of Mulliken charges =  -0.00000

 Dipole moment (field-independent basis, Debye):
    X=             -2.7214    Y=              0.5997    Z=              0.5194  Tot=              2.8346
 Quadrupole moment (field-independent basis, Debye-Ang):
   XX=           -112.8345   YY=            -77.0971   ZZ=            -79.7486
   XY=              2.1260   XZ=              6.5062   YZ=              1.7505

 Normal termination of Gaussian 09 at Wed Aug 25 09:21:40 2021.
