 Gaussian 09, Revision E.01,
 Gaussian 09:  ES64L-G09RevE.01 30-Nov-2015

 ----------------
 #P G4 OPT=calcfc
 ----------------

 ------
 MIYDII
 ------
 Symbolic Z-matrix:
 Charge =  0 Multiplicity = 1

 SCF Done:  E(RB3LYP) =  -754.342575876     A.U. after   15 cycles
 SCF Done:  E(RB3LYP) =  -754.453347688     A.U. after   13 cycles
 SCF Done:  E(RB3LYP) =  -754.515052905     A.U. after   14 cycles
 SCF Done:  E(RB3LYP) =  -754.522163321     A.U. after   15 cycles
 SCF Done:  E(RB3LYP) =  -754.525499875     A.U. after   13 cycles
 SCF Done:  E(RB3LYP) =  -754.526028899     A.U. after   13 cycles
 SCF Done:  E(RB3LYP) =  -754.526080539     A.U. after   13 cycles
 SCF Done:  E(RB3LYP) =  -754.526181977     A.U. after   11 cycles
 SCF Done:  E(RB3LYP) =  -754.526184557     A.U. after   10 cycles
 SCF Done:  E(RB3LYP) =  -754.526187487     A.U. after    9 cycles
 SCF Done:  E(RB3LYP) =  -754.526187783     A.U. after    8 cycles
 Optimization completed.
    -- Stationary point found.
 Normal termination of Gaussian 09 at Thu Aug 26 09:46:46 2021.

 ----------------------------------------------------------
 #P Geom=AllCheck Guess=TCheck SCRF=Check B3LYP/GTBas3 Freq
 ----------------------------------------------------------

 Structure from the checkpoint file:  "/public/home/users/caep010/.cache/gau_scr/Gau-67658.chk"
 ------
 MIYDII
 ------
 Charge =  0 Multiplicity = 1

 SCF Done:  E(RB3LYP) =  -754.526187783     A.U. after    1 cycles

  Exact polarizability: 141.757   9.015 117.350   2.108  -4.118  70.366
 Approx polarizability: 210.674  11.454 173.845   6.186 -17.468 120.600

                      1                      2                      3
                      A                      A                      A
 Frequencies --     44.4844                54.5693                65.2759
 Red. masses --     10.3303                11.3653                 5.6034
 Frc consts  --      0.0120                 0.0199                 0.0141
 IR Inten    --      0.7549                 0.1189                 0.5358

                      4                      5                      6
                      A                      A                      A
 Frequencies --    112.4232               124.2946               160.5028
 Red. masses --      6.1575                 6.0209                 3.5407
 Frc consts  --      0.0459                 0.0548                 0.0537
 IR Inten    --      1.4727                 0.3308                 0.3375

                      7                      8                      9
                      A                      A                      A
 Frequencies --    211.0257               244.2811               275.0464
 Red. masses --      4.6495                 4.8670                 6.7085
 Frc consts  --      0.1220                 0.1711                 0.2990
 IR Inten    --      6.5126                 5.4188                 9.4247

                     10                     11                     12
                      A                      A                      A
 Frequencies --    312.3682               353.2792               383.4533
 Red. masses --      2.1469                 6.0945                 4.8344
 Frc consts  --      0.1234                 0.4481                 0.4188
 IR Inten    --      2.5389                 0.7646                 2.4317

                     13                     14                     15
                      A                      A                      A
 Frequencies --    394.6886               431.4180               515.1025
 Red. masses --      7.9976                 3.2546                 1.9620
 Frc consts  --      0.7340                 0.3569                 0.3067
 IR Inten    --      0.1950                13.6663                 1.3740

                     16                     17                     18
                      A                      A                      A
 Frequencies --    553.6620               582.9853               634.9945
 Red. masses --      3.5800                 1.6426                 2.1540
 Frc consts  --      0.6466                 0.3289                 0.5117
 IR Inten    --     19.9136                53.1228                64.9451

                     19                     20                     21
                      A                      A                      A
 Frequencies --    670.5416               723.1580               742.6863
 Red. masses --      2.0132                 3.3048                 4.2123
 Frc consts  --      0.5333                 1.0183                 1.3689
 IR Inten    --     34.4342                25.9662                 5.3723

                     22                     23                     24
                      A                      A                      A
 Frequencies --    767.4579               773.3918               802.1772
 Red. masses --      5.8394                 3.3312                 1.4190
 Frc consts  --      2.0264                 1.1739                 0.5380
 IR Inten    --     32.7316                12.4646                88.3414

                     25                     26                     27
                      A                      A                      A
 Frequencies --    812.3120               837.5092               879.3841
 Red. masses --      4.1580                 2.7568                 2.1064
 Frc consts  --      1.6165                 1.1393                 0.9597
 IR Inten    --     23.9647                 5.7722                19.0988

                     28                     29                     30
                      A                      A                      A
 Frequencies --    902.4587               941.7901               969.9688
 Red. masses --      2.9135                 2.7765                 2.9605
 Frc consts  --      1.3980                 1.4510                 1.6411
 IR Inten    --     21.8934                10.4456                19.7686

                     31                     32                     33
                      A                      A                      A
 Frequencies --    988.4327              1006.0412              1082.7277
 Red. masses --      4.3507                 2.9620                 1.9865
 Frc consts  --      2.5044                 1.7663                 1.3721
 IR Inten    --     66.8667                11.4847                 8.8857

                     34                     35                     36
                      A                      A                      A
 Frequencies --   1116.1315              1138.0887              1165.7985
 Red. masses --      2.3570                 3.0672                 2.4845
 Frc consts  --      1.7300                 2.3407                 1.9895
 IR Inten    --      3.0201                99.7191               193.8285

                     37                     38                     39
                      A                      A                      A
 Frequencies --   1187.3894              1210.2719              1248.9002
 Red. masses --      2.5492                 1.3048                 1.2960
 Frc consts  --      2.1176                 1.1260                 1.1910
 IR Inten    --    118.1095                18.9051                19.7928

                     40                     41                     42
                      A                      A                      A
 Frequencies --   1267.5097              1299.1255              1320.8507
 Red. masses --      2.1279                 1.4827                 1.4166
 Frc consts  --      2.0142                 1.4744                 1.4562
 IR Inten    --    141.8124               115.3567                42.0061

                     43                     44                     45
                      A                      A                      A
 Frequencies --   1357.1117              1367.2409              1380.7808
 Red. masses --      1.3743                 1.9629                 1.7028
 Frc consts  --      1.4913                 2.1619                 1.9128
 IR Inten    --     81.7136                83.4855                 5.6609

                     46                     47                     48
                      A                      A                      A
 Frequencies --   1387.6303              1396.2458              1415.8461
 Red. masses --      1.5120                 1.3947                 2.2573
 Frc consts  --      1.7153                 1.6019                 2.6661
 IR Inten    --     22.4721                13.1843                55.1535

                     49                     50                     51
                      A                      A                      A
 Frequencies --   1447.7135              1475.8749              1480.1520
 Red. masses --      1.5581                 1.1185                 1.1344
 Frc consts  --      1.9241                 1.4355                 1.4643
 IR Inten    --    218.1286                15.6693                 6.0975

                     52                     53                     54
                      A                      A                      A
 Frequencies --   1490.1838              1530.1090              1626.8040
 Red. masses --      1.1785                 2.6198                10.0948
 Frc consts  --      1.5419                 3.6137                15.7405
 IR Inten    --     14.3615               172.7908               596.7418

                     55                     56                     57
                      A                      A                      A
 Frequencies --   1656.8408              1848.7507              3003.5430
 Red. masses --      3.1489                10.2900                 1.0712
 Frc consts  --      5.0930                20.7216                 5.6937
 IR Inten    --    402.1077               210.3264                36.5942

                     58                     59                     60
                      A                      A                      A
 Frequencies --   3005.9790              3034.6970              3044.3788
 Red. masses --      1.0800                 1.0611                 1.0652
 Frc consts  --      5.7498                 5.7573                 5.8166
 IR Inten    --      6.1961                19.3814                12.2144

                     61                     62                     63
                      A                      A                      A
 Frequencies --   3081.4241              3097.5425              3108.8352
 Red. masses --      1.1005                 1.0942                 1.0998
 Frc consts  --      6.1565                 6.1857                 6.2627
 IR Inten    --     33.0053                22.2252                16.9172

                     64                     65                     66
                      A                      A                      A
 Frequencies --   3423.5910              3593.0754              3750.4414
 Red. masses --      1.0762                 1.0750                 1.0642
 Frc consts  --      7.4324                 8.1773                 8.8194
 IR Inten    --    175.1334                41.6642                82.9251

 - Thermochemistry -
 -------------------
 Temperature   298.150 Kelvin.  Pressure   1.00000 Atm.
 Atom     1 has atomic number  8 and mass  15.99491

 Molecular mass:   202.07020 amu.
 Principal axes and moments of inertia in atomic units:
                           1         2         3
     Eigenvalues --  1943.627443427.643375138.23256
           X            0.99983   0.01832   0.00102
           Y           -0.01833   0.99981   0.00685
           Z           -0.00089  -0.00687   0.99998
 This molecule is an asymmetric top.
 Rotational symmetry number  1.
 Warning -- assumption of classical behavior for rotation
           may cause significant error
 Rotational temperatures (Kelvin)      0.04456     0.02527     0.01686
 Rotational constants (GHZ):           0.92854     0.52653     0.35124
 Zero-point vibrational energy     492339.6 (Joules/Mol)
                                  117.67198 (Kcal/Mol)
 Warning -- explicit consideration of  17 degrees of freedom as
           vibrations may cause significant error
 Vibrational temperatures:     64.00    78.51    93.92   161.75   178.83
          (Kelvin)            230.93   303.62   351.47   395.73   449.43
                              508.29   551.70   567.87   620.71   741.12
                              796.60   838.78   913.61   964.76  1040.46
                             1068.56  1104.20  1112.74  1154.15  1168.73
                             1204.99  1265.24  1298.44  1355.02  1395.57
                             1422.13  1447.47  1557.80  1605.86  1637.45
                             1677.32  1708.39  1741.31  1796.89  1823.66
                             1869.15  1900.41  1952.58  1967.15  1986.63
                             1996.49  2008.88  2037.08  2082.93  2123.45
                             2129.61  2144.04  2201.48  2340.61  2383.82
                             2659.94  4321.42  4324.93  4366.25  4380.18
                             4433.48  4456.67  4472.91  4925.78  5169.63
                             5396.04

 Zero-point correction=                           0.187522 (Hartree/Particle)
 Thermal correction to Energy=                    0.199989
 Thermal correction to Enthalpy=                  0.200933
 Thermal correction to Gibbs Free Energy=         0.147469
 Sum of electronic and zero-point Energies=           -754.338666
 Sum of electronic and thermal Energies=              -754.326199
 Sum of electronic and thermal Enthalpies=            -754.325255
 Sum of electronic and thermal Free Energies=         -754.378719

                     E (Thermal)             CV                S
                      KCal/Mol        Cal/Mol-Kelvin    Cal/Mol-Kelvin
 Total                  125.495             46.537            112.525
 Electronic               0.000              0.000              0.000
 Translational            0.889              2.981             41.815
 Rotational               0.889              2.981             31.904
 Vibrational            123.717             40.576             38.806
 Vibration     1          0.595              1.980              5.049
 Vibration     2          0.596              1.976              4.645
 Vibration     3          0.597              1.971              4.291
 Vibration     4          0.607              1.939              3.227
 Vibration     5          0.610              1.929              3.032
 Vibration     6          0.622              1.891              2.544
 Vibration     7          0.643              1.824              2.035
 Vibration     8          0.660              1.772              1.771
 Vibration     9          0.677              1.719              1.564
 Vibration    10          0.701              1.650              1.350
 Vibration    11          0.729              1.569              1.152
 Vibration    12          0.753              1.505              1.026
 Vibration    13          0.762              1.482              0.982
 Vibration    14          0.792              1.402              0.854
 Vibration    15          0.870              1.217              0.621
 Vibration    16          0.909              1.132              0.537
 Vibration    17          0.940              1.068              0.480

 Optimization completed.
    -- Stationary point found.
 Normal termination of Gaussian 09 at Thu Aug 26 09:50:53 2021.

 -----------------------------------------------------------------
 #P Geom=AllCheck Guess=TCheck SCRF=Check CCSD(T,E4T,FrzG4)/GTBas1
 -----------------------------------------------------------------

 Structure from the checkpoint file:  "/public/home/users/caep010/.cache/gau_scr/Gau-67658.chk"
 ------
 MIYDII
 ------
 Charge =  0 Multiplicity = 1

 SCF Done:  E(RHF) =  -750.153581444     A.U. after   14 cycles
 E2 =    -0.2148283195D+01 EUMP2 =    -0.75230186463914D+03
 CCSD(T)
 CCSD(T)= -0.75243455853D+03
 518\MP4SDQ=-752.3571218\CCSD=-752.3516149\CCSD(T)=-752.4345585\RMSD=9.
 Normal termination of Gaussian 09 at Thu Aug 26 12:57:31 2021.

 ---------------------------------------------------------
 #P Geom=AllCheck Guess=TCheck SCRF=Check MP4=FrzG4/GTBas2
 ---------------------------------------------------------

 Structure from the checkpoint file:  "/public/home/users/caep010/.cache/gau_scr/Gau-67658.chk"
 ------
 MIYDII
 ------
 Charge =  0 Multiplicity = 1

 SCF Done:  E(RHF) =  -750.174080949     A.U. after   14 cycles
 E2 =    -0.2179909886D+01 EUMP2 =    -0.75235399083469D+03
 Normal termination of Gaussian 09 at Thu Aug 26 14:21:30 2021.

 ---------------------------------------------------------
 #P Geom=AllCheck Guess=TCheck SCRF=Check MP4=FrzG4/GTBas3
 ---------------------------------------------------------

 Structure from the checkpoint file:  "/public/home/users/caep010/.cache/gau_scr/Gau-67658.chk"
 ------
 MIYDII
 ------
 Charge =  0 Multiplicity = 1

 SCF Done:  E(RHF) =  -750.237515406     A.U. after   13 cycles
 E2 =    -0.2593798726D+01 EUMP2 =    -0.75283131413201D+03
 Normal termination of Gaussian 09 at Fri Aug 27 02:12:09 2021.

 -----------------------------------------------------------
 #P Geom=AllCheck Guess=TCheck SCRF=Check MP2=Full/GTLargeXP
 -----------------------------------------------------------

 Structure from the checkpoint file:  "/public/home/users/caep010/.cache/gau_scr/Gau-67658.chk"
 ------
 MIYDII
 ------
 Charge =  0 Multiplicity = 1

 SCF Done:  E(RHF) =  -750.428823815     A.U. after   14 cycles
 E2 =    -0.3381981269D+01 EUMP2 =    -0.75381080508383D+03
 Normal termination of Gaussian 09 at Fri Aug 27 02:31:27 2021.
 SCF Done:  E(RHF) =  -750.488111374     A.U. after   10 cycles
 Normal termination of Gaussian 09 at Fri Aug 27 02:40:41 2021.

                         Standard orientation:
 ---------------------------------------------------------------------
 Center     Atomic      Atomic             Coordinates (Angstroms)
 Number     Number       Type             X           Y           Z
 ---------------------------------------------------------------------
      1          8           0        3.013324   -1.852920   -0.637236
      2          1           0        3.254832   -2.779688   -0.487327
      3          6           0        1.795910   -1.676875   -0.087907
      4          8           0        1.181413   -2.549402    0.465374
      5          6           0        1.316641   -0.240045   -0.268648
      6          7           0       -0.052709   -0.188835    0.215976
      7          1           0       -0.484820   -1.072939    0.488110
      8          1           0        1.343376   -0.030485   -1.347879
      9          6           0        2.274650    0.750908    0.426556
     10          1           0        2.173090    0.626910    1.511295
     11          1           0        3.299317    0.482517    0.157427
     12          6           0        2.005299    2.201464    0.024038
     13          1           0        2.710552    2.854519    0.549912
     14          1           0        2.189431    2.327349   -1.049803
     15          6           0        0.588323    2.678715    0.341857
     16          7           0       -0.457962    2.010779   -0.444348
     17          1           0       -1.234391    2.609621   -0.691407
     18          1           0        0.391029    2.566852    1.417832
     19          1           0        0.508964    3.743366    0.108470
     20          6           0       -0.939714    0.770109   -0.102164
     21          7           0       -2.263571    0.689949   -0.149470
     22          7           0       -2.870206   -0.543662    0.004674
     23          8           0       -4.039831   -0.585467   -0.331423
     24          8           0       -2.265769   -1.513622    0.497429
 ---------------------------------------------------------------------

 SCF Done:  E(RHF) =  -750.500108213     A.U. after    8 cycles

 The electronic state is 1-A.
 Alpha  occ. eigenvalues --  -20.63867 -20.57696 -20.57606 -20.57066 -15.85422
 Alpha  occ. eigenvalues --  -15.60857 -15.60673 -15.58793 -11.41498 -11.39955
 Alpha  occ. eigenvalues --  -11.32361 -11.29845 -11.26403 -11.25903  -1.59125
 Alpha  occ. eigenvalues --   -1.49643  -1.39496  -1.37626  -1.35115  -1.24389
 Alpha  occ. eigenvalues --   -1.22422  -1.11593  -1.03217  -0.98048  -0.91051
 Alpha  occ. eigenvalues --   -0.85541  -0.83750  -0.82894  -0.77271  -0.74636
 Alpha  occ. eigenvalues --   -0.73196  -0.71515  -0.71368  -0.70132  -0.68119
 Alpha  occ. eigenvalues --   -0.67714  -0.65132  -0.62805  -0.62452  -0.61778
 Alpha  occ. eigenvalues --   -0.60916  -0.56094  -0.53446  -0.52617  -0.52128
 Alpha  occ. eigenvalues --   -0.51483  -0.50079  -0.48034  -0.47596  -0.44973
 Alpha  occ. eigenvalues --   -0.44390  -0.42680  -0.39444
 Alpha virt. eigenvalues --    0.01984   0.02749   0.03224   0.03690   0.04966
 Alpha virt. eigenvalues --    0.05201   0.05769   0.06119   0.06563   0.07598
 Alpha virt. eigenvalues --    0.07782   0.08588   0.08861   0.08976   0.09565

 Mulliken charges:
               1
     1  O   -0.549276
     2  H    0.418362
     3  C    0.544762
     4  O   -0.588367
     5  C    0.113307
     6  N   -0.545716
     7  H    0.464849
     8  H    0.218530
     9  C   -0.362572
    10  H    0.201167
    11  H    0.216317
    12  C   -0.318266
    13  H    0.185249
    14  H    0.174915
    15  C   -0.264870
    16  N   -0.466371
    17  H    0.360006
    18  H    0.181388
    19  H    0.197773
    20  C    0.557481
    21  N   -0.404913
    22  N    0.533439
    23  O   -0.392429
    24  O   -0.474765
 Sum of Mulliken charges =  -0.00000

 Dipole moment (field-independent basis, Debye):
    X=              8.5209    Y=              4.4430    Z=             -0.5543  Tot=              9.6257
 Quadrupole moment (field-independent basis, Debye-Ang):
   XX=            -96.8542   YY=            -75.7166   ZZ=            -81.3879
   XY=             -8.1665   XZ=             -0.7144   YZ=              4.6322

 Normal termination of Gaussian 09 at Fri Aug 27 03:40:37 2021.
