 Gaussian 09, Revision E.01,
 Gaussian 09:  ES64L-G09RevE.01 30-Nov-2015

 ----------------
 #P G4 OPT=calcfc
 ----------------

 ------
 MENFXN
 ------
 Symbolic Z-matrix:
 Charge =  0 Multiplicity = 1

 SCF Done:  E(RB3LYP) =  -580.923784074     A.U. after   16 cycles
 SCF Done:  E(RB3LYP) =  -581.016891538     A.U. after   14 cycles
 SCF Done:  E(RB3LYP) =  -581.054372251     A.U. after   16 cycles
 SCF Done:  E(RB3LYP) =  -581.056356324     A.U. after   16 cycles
 SCF Done:  E(RB3LYP) =  -581.055792833     A.U. after   17 cycles
 SCF Done:  E(RB3LYP) =  -581.056700055     A.U. after   12 cycles
 SCF Done:  E(RB3LYP) =  -581.051592711     A.U. after   15 cycles
 SCF Done:  E(RB3LYP) =  -581.056816564     A.U. after   11 cycles
 SCF Done:  E(RB3LYP) =  -581.057110017     A.U. after   14 cycles
 SCF Done:  E(RB3LYP) =  -581.057176058     A.U. after   14 cycles
 SCF Done:  E(RB3LYP) =  -581.057219146     A.U. after   10 cycles
 SCF Done:  E(RB3LYP) =  -581.057220119     A.U. after   10 cycles
 SCF Done:  E(RB3LYP) =  -581.057220313     A.U. after    7 cycles
 Optimization completed.
    -- Stationary point found.
 Normal termination of Gaussian 09 at Fri Aug 27 05:58:11 2021.

 ----------------------------------------------------------
 #P Geom=AllCheck Guess=TCheck SCRF=Check B3LYP/GTBas3 Freq
 ----------------------------------------------------------

 Structure from the checkpoint file:  "/public/home/users/caep010/.cache/gau_scr/Gau-84158.chk"
 ------
 MENFXN
 ------
 Charge =  0 Multiplicity = 1

 SCF Done:  E(RB3LYP) =  -581.057220313     A.U. after    2 cycles

  Exact polarizability:  93.160  -2.199  77.542  -0.000  -0.001  35.869
 Approx polarizability: 177.365 -12.247 161.557   0.000  -0.008  57.102

                      1                      2                      3
                      A                      A                      A
 Frequencies --     46.3368                92.6153               132.5628
 Red. masses --      7.0990                 1.0677                 8.6983
 Frc consts  --      0.0090                 0.0054                 0.0901
 IR Inten    --      0.5389                 0.0969                 5.6547

                      4                      5                      6
                      A                      A                      A
 Frequencies --    196.6205               263.3457               291.1081
 Red. masses --      6.7643                 4.5791                 3.7552
 Frc consts  --      0.1541                 0.1871                 0.1875
 IR Inten    --      3.2663                 2.1940                 2.5955

                      7                      8                      9
                      A                      A                      A
 Frequencies --    364.8238               401.9457               426.1915
 Red. masses --     11.9529                14.2234                11.6421
 Frc consts  --      0.9373                 1.3539                 1.2459
 IR Inten    --      0.0242                 2.2896                 3.7388

                     10                     11                     12
                      A                      A                      A
 Frequencies --    487.8372               594.2042               649.3404
 Red. masses --     11.0597                13.6690                 7.0623
 Frc consts  --      1.5507                 2.8435                 1.7545
 IR Inten    --     14.7417                 0.9461                25.0963

                     13                     14                     15
                      A                      A                      A
 Frequencies --    666.1677               729.8980               790.7356
 Red. masses --      8.4476                 6.9480                11.8539
 Frc consts  --      2.2088                 2.1809                 4.3669
 IR Inten    --      8.8562                 0.7200                 1.5451

                     16                     17                     18
                      A                      A                      A
 Frequencies --    841.2958               861.4280               988.7131
 Red. masses --     11.7351                12.6700                 1.9377
 Frc consts  --      4.8937                 5.5394                 1.1160
 IR Inten    --     81.1709                 0.9211                 1.9845

                     19                     20                     21
                      A                      A                      A
 Frequencies --   1062.5829              1102.5503              1160.4960
 Red. masses --      1.4135                 9.9518                 4.7930
 Frc consts  --      0.9403                 7.1277                 3.8032
 IR Inten    --      0.8324                47.0076                23.0190

                     22                     23                     24
                      A                      A                      A
 Frequencies --   1318.7948              1405.3175              1416.1012
 Red. masses --      5.3398                10.2827                 1.3017
 Frc consts  --      5.4718                11.9648                 1.5379
 IR Inten    --      2.5272               162.8135                11.8742

                     25                     26                     27
                      A                      A                      A
 Frequencies --   1461.7064              1474.9085              1488.2615
 Red. masses --      3.8068                 1.0427                 1.3238
 Frc consts  --      4.7921                 1.3364                 1.7276
 IR Inten    --     15.7293                 8.9306                14.2608

                     28                     29                     30
                      A                      A                      A
 Frequencies --   1560.0460              1660.8318              1728.3018
 Red. masses --     12.0271                14.3494                12.6336
 Frc consts  --     17.2459                23.3203                22.2339
 IR Inten    --    105.7769               191.5501               399.8551

                     31                     32                     33
                      A                      A                      A
 Frequencies --   3060.0330              3126.3277              3153.1679
 Red. masses --      1.0344                 1.1008                 1.1033
 Frc consts  --      5.7067                 6.3390                 6.4632
 IR Inten    --      2.9619                 1.4322                 1.7538

 - Thermochemistry -
 -------------------
 Temperature   298.150 Kelvin.  Pressure   1.00000 Atm.
 Atom     1 has atomic number  6 and mass  12.00000

 Molecular mass:   145.01236 amu.
 Principal axes and moments of inertia in atomic units:
                           1         2         3
     Eigenvalues --   670.129561628.930972287.91109
           X            0.99981  -0.01949  -0.00000
           Y            0.01949   0.99981   0.00000
           Z            0.00000  -0.00000   1.00000
 This molecule is an asymmetric top.
 Rotational symmetry number  1.
 Warning -- assumption of classical behavior for rotation
           may cause significant error
 Rotational temperatures (Kelvin)      0.12925     0.05317     0.03786
 Rotational constants (GHZ):           2.69312     1.10793     0.78882
 Zero-point vibrational energy     209374.0 (Joules/Mol)
                                   50.04158 (Kcal/Mol)
 Warning -- explicit consideration of  11 degrees of freedom as
           vibrations may cause significant error
 Vibrational temperatures:     66.67   133.25   190.73   282.89   378.90
          (Kelvin)            418.84   524.90   578.31   613.19   701.89
                              854.93   934.25   958.47  1050.16  1137.69
                             1210.44  1239.40  1422.54  1528.82  1586.32
                             1669.69  1897.45  2021.94  2037.45  2103.07
                             2122.06  2141.27  2244.56  2389.56  2486.64
                             4402.70  4498.08  4536.70

 Zero-point correction=                           0.079746 (Hartree/Particle)
 Thermal correction to Energy=                    0.088378
 Thermal correction to Enthalpy=                  0.089323
 Thermal correction to Gibbs Free Energy=         0.045181
 Sum of electronic and zero-point Energies=           -580.977474
 Sum of electronic and thermal Energies=              -580.968842
 Sum of electronic and thermal Enthalpies=            -580.967898
 Sum of electronic and thermal Free Energies=         -581.012040

                     E (Thermal)             CV                S
                      KCal/Mol        Cal/Mol-Kelvin    Cal/Mol-Kelvin
 Total                   55.458             30.178             92.905
 Electronic               0.000              0.000              0.000
 Translational            0.889              2.981             40.826
 Rotational               0.889              2.981             29.303
 Vibrational             53.681             24.216             22.776
 Vibration     1          0.595              1.979              4.968
 Vibration     2          0.602              1.954              3.604
 Vibration     3          0.613              1.921              2.909
 Vibration     4          0.636              1.845              2.164
 Vibration     5          0.670              1.740              1.639
 Vibration     6          0.687              1.690              1.468
 Vibration     7          0.738              1.545              1.101
 Vibration     8          0.768              1.466              0.956
 Vibration     9          0.788              1.413              0.871
 Vibration    10          0.844              1.277              0.689
 Vibration    11          0.952              1.044              0.460

 Normal termination of Gaussian 09 at Fri Aug 27 05:59:23 2021.

 -----------------------------------------------------------------
 #P Geom=AllCheck Guess=TCheck SCRF=Check CCSD(T,E4T,FrzG4)/GTBas1
 -----------------------------------------------------------------

 Structure from the checkpoint file:  "/public/home/users/caep010/.cache/gau_scr/Gau-84158.chk"
 ------
 MENFXN
 ------
 Charge =  0 Multiplicity = 1

 SCF Done:  E(RHF) =  -577.793064992     A.U. after   17 cycles
 E2 =    -0.1662005057D+01 EUMP2 =    -0.57945507004891D+03
 CCSD(T)
 CCSD(T)= -0.57952046699D+03
 579.5496406\MP4SDQ=-579.4526585\CCSD=-579.4425129\CCSD(T)=-579.520467\
 Normal termination of Gaussian 09 at Fri Aug 27 06:18:14 2021.

 ---------------------------------------------------------
 #P Geom=AllCheck Guess=TCheck SCRF=Check MP4=FrzG4/GTBas2
 ---------------------------------------------------------

 Structure from the checkpoint file:  "/public/home/users/caep010/.cache/gau_scr/Gau-84158.chk"
 ------
 MENFXN
 ------
 Charge =  0 Multiplicity = 1

 SCF Done:  E(RHF) =  -577.809931371     A.U. after   15 cycles
 E2 =    -0.1682569957D+01 EUMP2 =    -0.57949250132751D+03
 Normal termination of Gaussian 09 at Fri Aug 27 06:25:48 2021.

 ---------------------------------------------------------
 #P Geom=AllCheck Guess=TCheck SCRF=Check MP4=FrzG4/GTBas3
 ---------------------------------------------------------

 Structure from the checkpoint file:  "/public/home/users/caep010/.cache/gau_scr/Gau-84158.chk"
 ------
 MENFXN
 ------
 Charge =  0 Multiplicity = 1

 SCF Done:  E(RHF) =  -577.854497068     A.U. after   14 cycles
 E2 =    -0.1972086812D+01 EUMP2 =    -0.57982658388029D+03
 Normal termination of Gaussian 09 at Fri Aug 27 07:05:06 2021.

 -----------------------------------------------------------
 #P Geom=AllCheck Guess=TCheck SCRF=Check MP2=Full/GTLargeXP
 -----------------------------------------------------------

 Structure from the checkpoint file:  "/public/home/users/caep010/.cache/gau_scr/Gau-84158.chk"
 ------
 MENFXN
 ------
 Charge =  0 Multiplicity = 1

 SCF Done:  E(RHF) =  -578.005711394     A.U. after   15 cycles
 E2 =    -0.2544073752D+01 EUMP2 =    -0.58054978514575D+03
 Normal termination of Gaussian 09 at Fri Aug 27 07:13:02 2021.
 SCF Done:  E(RHF) =  -578.053349279     A.U. after   11 cycles
 Normal termination of Gaussian 09 at Fri Aug 27 07:20:25 2021.

                         Standard orientation:
 ---------------------------------------------------------------------
 Center     Atomic      Atomic             Coordinates (Angstroms)
 Number     Number       Type             X           Y           Z
 ---------------------------------------------------------------------
      1          6           0       -0.613245    0.598903    0.000029
      2          6           0        0.463914   -0.320423   -0.000022
      3          7           0        0.094187   -1.569753   -0.000092
      4          7           0       -1.710453   -0.158034    0.000012
      5          6           0       -0.699039    2.084688    0.000141
      6          1           0       -0.201012    2.500205   -0.879393
      7          1           0       -0.203208    2.499990    0.880694
      8          1           0       -1.749980    2.378948   -0.001041
      9          7           0        1.882543    0.015744    0.000001
     10          8           0       -1.246444   -1.564895   -0.000101
     11          8           0        2.683296   -0.897443    0.000278
     12          8           0       -2.901118    0.050279    0.000034
     13          8           0        2.136826    1.215327   -0.000285
 ---------------------------------------------------------------------

 SCF Done:  E(RHF) =  -578.062631113     A.U. after    7 cycles

 The electronic state is 1-A.
 Alpha  occ. eigenvalues --  -20.73699 -20.64619 -20.64294 -20.60439 -15.90124
 Alpha  occ. eigenvalues --  -15.84926 -15.71841 -11.39539 -11.36203 -11.28078
 Alpha  occ. eigenvalues --   -1.65361  -1.61850  -1.50782  -1.44714  -1.25963
 Alpha  occ. eigenvalues --   -1.21813  -1.06292  -1.03779  -0.89639  -0.87976
 Alpha  occ. eigenvalues --   -0.82767  -0.78679  -0.76701  -0.75527  -0.73583
 Alpha  occ. eigenvalues --   -0.70499  -0.64544  -0.64330  -0.61620  -0.61582
 Alpha  occ. eigenvalues --   -0.58593  -0.54104  -0.54078  -0.49854  -0.49204
 Alpha  occ. eigenvalues --   -0.48672  -0.38483
 Alpha virt. eigenvalues --    0.00162   0.02954   0.04180   0.04481   0.05271
 Alpha virt. eigenvalues --    0.06255   0.06418   0.07061   0.07143   0.07850
 Alpha virt. eigenvalues --    0.08468   0.09224   0.10426   0.11314   0.11933

 Mulliken charges:
               1
     1  C    0.211982
     2  C    0.302641
     3  N   -0.112027
     4  N    0.444148
     5  C   -0.597935
     6  H    0.216799
     7  H    0.216717
     8  H    0.239802
     9  N    0.498262
    10  O   -0.136444
    11  O   -0.351893
    12  O   -0.521666
    13  O   -0.410386
 Sum of Mulliken charges =  -0.00000

 Dipole moment (field-independent basis, Debye):
    X=             -0.2143    Y=              2.5382    Z=              0.0003  Tot=              2.5472
 Quadrupole moment (field-independent basis, Debye-Ang):
   XX=            -74.8450   YY=            -56.5141   ZZ=            -53.3557
   XY=             -1.8210   XZ=             -0.0003   YZ=              0.0012

 Normal termination of Gaussian 09 at Fri Aug 27 07:38:28 2021.
