 Gaussian 09, Revision E.01,
 Gaussian 09:  ES64L-G09RevE.01 30-Nov-2015

 ----------------
 #P G4 OPT=calcfc
 ----------------

 ------
 NAPHAP
 ------
 Symbolic Z-matrix:
 Charge =  0 Multiplicity = 1

 SCF Done:  E(RB3LYP) =  -665.659629920     A.U. after   18 cycles
 SCF Done:  E(RB3LYP) =  -665.711679913     A.U. after   14 cycles
 SCF Done:  E(RB3LYP) =  -665.717534043     A.U. after   16 cycles
 SCF Done:  E(RB3LYP) =  -665.718548942     A.U. after   14 cycles
 SCF Done:  E(RB3LYP) =  -665.718616206     A.U. after   12 cycles
 SCF Done:  E(RB3LYP) =  -665.718621233     A.U. after   10 cycles
 Optimization completed.
    -- Stationary point found.
 Normal termination of Gaussian 09 at Fri Aug 27 06:26:00 2021.

 ----------------------------------------------------------
 #P Geom=AllCheck Guess=TCheck SCRF=Check B3LYP/GTBas3 Freq
 ----------------------------------------------------------

 Structure from the checkpoint file:  "/public/home/users/caep010/.cache/gau_scr/Gau-10227.chk"
 ------
 NAPHAP
 ------
 Charge =  0 Multiplicity = 1

 SCF Done:  E(RB3LYP) =  -665.718621233     A.U. after    1 cycles

  Exact polarizability: 165.384 -10.863  72.577   0.002  -0.001  37.475
 Approx polarizability: 254.166 -39.818 154.626   0.006  -0.001  60.732

                      1                      2                      3
                      A                      A                      A
 Frequencies --     50.4813                93.3221               102.7397
 Red. masses --     13.3035                11.9355                12.9466
 Frc consts  --      0.0200                 0.0612                 0.0805
 IR Inten    --      0.4164                 0.3323                 1.4978

                      4                      5                      6
                      A                      A                      A
 Frequencies --    115.5390               218.1081               256.6711
 Red. masses --     13.6200                10.0047                10.2734
 Frc consts  --      0.1071                 0.2804                 0.3988
 IR Inten    --      0.8019                 2.6416                 0.2552

                      7                      8                      9
                      A                      A                      A
 Frequencies --    306.4419               360.6649               448.4739
 Red. masses --     13.5048                11.4451                11.5201
 Frc consts  --      0.7472                 0.8772                 1.3651
 IR Inten    --      0.0179                 2.6874                 4.0977

                     10                     11                     12
                      A                      A                      A
 Frequencies --    467.9613               519.0811               547.3737
 Red. masses --      7.2150                 1.2210                12.9777
 Frc consts  --      0.9309                 0.1938                 2.2910
 IR Inten    --      6.5016                56.4550                11.1823

                     13                     14                     15
                      A                      A                      A
 Frequencies --    586.0683               604.2354               699.4997
 Red. masses --      8.8710                 1.1765                 4.9409
 Frc consts  --      1.7952                 0.2531                 1.4244
 IR Inten    --      6.5065               138.7892                 7.0683

                     16                     17                     18
                      A                      A                      A
 Frequencies --    743.6477               765.9917               797.0169
 Red. masses --      8.1593                10.7535                12.1586
 Frc consts  --      2.6585                 3.7175                 4.5506
 IR Inten    --      2.4191                 0.6113                12.2360

                     19                     20                     21
                      A                      A                      A
 Frequencies --    797.3035               847.9668               977.7879
 Red. masses --     13.8650                 9.4541                 7.4941
 Frc consts  --      5.1930                 4.0052                 4.2214
 IR Inten    --     12.4695                 7.7415               112.0427

                     22                     23                     24
                      A                      A                      A
 Frequencies --   1020.8421              1077.0609              1125.4706
 Red. masses --      5.0311                 2.8057                 3.7230
 Frc consts  --      3.0891                 1.9177                 2.7785
 IR Inten    --     43.0671                 4.8906                32.4500

                     25                     26                     27
                      A                      A                      A
 Frequencies --   1207.6822              1240.2840              1343.8399
 Red. masses --      2.5589                 4.7458                 4.1215
 Frc consts  --      2.1989                 4.3014                 4.3853
 IR Inten    --      1.5271               223.7151               364.2891

                     28                     29                     30
                      A                      A                      A
 Frequencies --   1352.6503              1391.1695              1506.2770
 Red. masses --      3.7726                 8.2229                 7.3835
 Frc consts  --      4.0669                 9.3763                 9.8702
 IR Inten    --    235.8865                 5.2448                94.5017

                     31                     32                     33
                      A                      A                      A
 Frequencies --   1614.0809              1631.3507              1667.5378
 Red. masses --      9.6932                12.3759                 6.3370
 Frc consts  --     14.8788                19.4054                10.3822
 IR Inten    --    837.0040               215.0959               510.6115

                     34                     35                     36
                      A                      A                      A
 Frequencies --   2298.8581              3652.3236              3669.4997
 Red. masses --     13.9920                 1.0821                 1.0819
 Frc consts  --     43.5668                 8.5050                 8.5830
 IR Inten    --    624.0717               164.8164               123.4586

 - Thermochemistry -
 -------------------
 Temperature   298.150 Kelvin.  Pressure   1.00000 Atm.
 Atom     1 has atomic number  7 and mass  14.00307

 Molecular mass:   170.03007 amu.
 Principal axes and moments of inertia in atomic units:
                           1         2         3
     Eigenvalues --   379.866654362.735454742.60188
           X            1.00000   0.00200  -0.00000
           Y           -0.00200   1.00000  -0.00002
           Z            0.00000   0.00002   1.00000
 This molecule is an asymmetric top.
 Rotational symmetry number  1.
 Rotational temperatures (Kelvin)      0.22801     0.01985     0.01826
 Rotational constants (GHZ):           4.75099     0.41367     0.38054
 Zero-point vibrational energy     215957.7 (Joules/Mol)
                                   51.61512 (Kcal/Mol)
 Warning -- explicit consideration of  14 degrees of freedom as
           vibrations may cause significant error
 Vibrational temperatures:     72.63   134.27   147.82   166.23   313.81
          (Kelvin)            369.29   440.90   518.92   645.25   673.29
                              746.84   787.55   843.22   869.36  1006.42
                             1069.94  1102.09  1146.73  1147.14  1220.03
                             1406.82  1468.76  1549.65  1619.30  1737.58
                             1784.49  1933.48  1946.16  2001.58  2167.19
                             2322.30  2347.15  2399.21  3307.54  5254.87
                             5279.59

 Zero-point correction=                           0.082254 (Hartree/Particle)
 Thermal correction to Energy=                    0.091831
 Thermal correction to Enthalpy=                  0.092776
 Thermal correction to Gibbs Free Energy=         0.046040
 Sum of electronic and zero-point Energies=           -665.636367
 Sum of electronic and thermal Energies=              -665.626790
 Sum of electronic and thermal Enthalpies=            -665.625846
 Sum of electronic and thermal Free Energies=         -665.672581

                     E (Thermal)             CV                S
                      KCal/Mol        Cal/Mol-Kelvin    Cal/Mol-Kelvin
 Total                   57.625             34.124             98.363
 Electronic               0.000              0.000              0.000
 Translational            0.889              2.981             41.300
 Rotational               0.889              2.981             30.442
 Vibrational             55.848             28.162             26.620
 Vibration     1          0.595              1.977              4.798
 Vibration     2          0.602              1.954              3.589
 Vibration     3          0.605              1.947              3.402
 Vibration     4          0.608              1.937              3.174
 Vibration     5          0.646              1.813              1.975
 Vibration     6          0.666              1.752              1.684
 Vibration     7          0.697              1.661              1.381
 Vibration     8          0.735              1.553              1.119
 Vibration     9          0.807              1.364              0.800
 Vibration    10          0.825              1.321              0.743
 Vibration    11          0.874              1.208              0.612
 Vibration    12          0.903              1.145              0.550
 Vibration    13          0.943              1.062              0.474
 Vibration    14          0.963              1.023              0.442

 Optimization completed.
    -- Stationary point found.
 Normal termination of Gaussian 09 at Fri Aug 27 06:27:44 2021.

 -----------------------------------------------------------------
 #P Geom=AllCheck Guess=TCheck SCRF=Check CCSD(T,E4T,FrzG4)/GTBas1
 -----------------------------------------------------------------

 Structure from the checkpoint file:  "/public/home/users/caep010/.cache/gau_scr/Gau-10227.chk"
 ------
 NAPHAP
 ------
 Charge =  0 Multiplicity = 1

 SCF Done:  E(RHF) =  -661.962440884     A.U. after   16 cycles
 E2 =    -0.1930154541D+01 EUMP2 =    -0.66389259542498D+03
 CCSD(T)
 CCSD(T)= -0.66397313865D+03
 9711\CCSD=-663.8859713\CCSD(T)=-663.9731387\RMSD=9.614e-09\PG=C01 [X(C
 Normal termination of Gaussian 09 at Fri Aug 27 07:14:07 2021.

 ---------------------------------------------------------
 #P Geom=AllCheck Guess=TCheck SCRF=Check MP4=FrzG4/GTBas2
 ---------------------------------------------------------

 Structure from the checkpoint file:  "/public/home/users/caep010/.cache/gau_scr/Gau-10227.chk"
 ------
 NAPHAP
 ------
 Charge =  0 Multiplicity = 1

 SCF Done:  E(RHF) =  -661.981984224     A.U. after   15 cycles
 E2 =    -0.1954679313D+01 EUMP2 =    -0.66393666353677D+03
 Normal termination of Gaussian 09 at Fri Aug 27 07:32:11 2021.

 ---------------------------------------------------------
 #P Geom=AllCheck Guess=TCheck SCRF=Check MP4=FrzG4/GTBas3
 ---------------------------------------------------------

 Structure from the checkpoint file:  "/public/home/users/caep010/.cache/gau_scr/Gau-10227.chk"
 ------
 NAPHAP
 ------
 Charge =  0 Multiplicity = 1

 SCF Done:  E(RHF) =  -662.034540989     A.U. after   14 cycles
 E2 =    -0.2265100810D+01 EUMP2 =    -0.66429964179958D+03
 Normal termination of Gaussian 09 at Fri Aug 27 09:14:16 2021.

 -----------------------------------------------------------
 #P Geom=AllCheck Guess=TCheck SCRF=Check MP2=Full/GTLargeXP
 -----------------------------------------------------------

 Structure from the checkpoint file:  "/public/home/users/caep010/.cache/gau_scr/Gau-10227.chk"
 ------
 NAPHAP
 ------
 Charge =  0 Multiplicity = 1

 SCF Done:  E(RHF) =  -662.204539428     A.U. after   15 cycles
 E2 =    -0.2939625193D+01 EUMP2 =    -0.66514416462025D+03
 Normal termination of Gaussian 09 at Fri Aug 27 09:27:49 2021.
 SCF Done:  E(RHF) =  -662.257040111     A.U. after   11 cycles
 Normal termination of Gaussian 09 at Fri Aug 27 09:32:16 2021.

                         Standard orientation:
 ---------------------------------------------------------------------
 Center     Atomic      Atomic             Coordinates (Angstroms)
 Number     Number       Type             X           Y           Z
 ---------------------------------------------------------------------
      1          7           0       -1.125151    0.970062   -0.000279
      2          6           0       -1.464332   -0.284563   -0.000080
      3          7           0        0.252261    0.930255   -0.000623
      4          1           0        0.836185    1.752182   -0.000259
      5          7           0       -2.732497   -0.837254    0.000171
      6          6           0        0.750932   -0.325974   -0.000427
      7          7           0        1.952054   -0.866159   -0.000665
      8          7           0        2.999936    0.031595    0.000169
      9          8           0        4.112331   -0.458770    0.000708
     10          7           0       -0.374815   -1.116048   -0.000253
     11          1           0       -0.363639   -2.123241    0.000704
     12          7           0       -3.679436   -0.029062    0.000310
     13          7           0       -4.628057    0.578079    0.000401
     14          8           0        2.782394    1.259270    0.000290
 ---------------------------------------------------------------------

 SCF Done:  E(RHF) =  -662.266971620     A.U. after    7 cycles

 The electronic state is 1-A.
 Alpha  occ. eigenvalues --  -20.58599 -20.57925 -15.86610 -15.84310 -15.74312
 Alpha  occ. eigenvalues --  -15.67315 -15.67207 -15.67042 -15.63494 -15.60361
 Alpha  occ. eigenvalues --  -11.41964 -11.41273  -1.60229  -1.57067  -1.47292
 Alpha  occ. eigenvalues --   -1.38460  -1.36424  -1.29720  -1.26355  -1.15640
 Alpha  occ. eigenvalues --   -0.99277  -0.95576  -0.91017  -0.81595  -0.78772
 Alpha  occ. eigenvalues --   -0.76867  -0.76070  -0.74625  -0.73207  -0.73050
 Alpha  occ. eigenvalues --   -0.72102  -0.69922  -0.69421  -0.56848  -0.53909
 Alpha  occ. eigenvalues --   -0.52988  -0.52511  -0.52238  -0.48935  -0.46294
 Alpha  occ. eigenvalues --   -0.45151  -0.44661  -0.36113
 Alpha virt. eigenvalues --    0.02326   0.03671   0.04005   0.04530   0.05851
 Alpha virt. eigenvalues --    0.06080   0.06304   0.07716   0.07760   0.08069
 Alpha virt. eigenvalues --    0.08440   0.09065   0.09885   0.09937   0.10523

 Mulliken charges:
               1
     1  N   -0.421624
     2  C    0.491787
     3  N   -0.292239
     4  H    0.426975
     5  N   -0.460311
     6  C    0.547690
     7  N   -0.424891
     8  N    0.563409
     9  O   -0.394911
    10  N   -0.365918
    11  H    0.421953
    12  N    0.580444
    13  N   -0.181270
    14  O   -0.491095
 Sum of Mulliken charges =  -0.00000

 Dipole moment (field-independent basis, Debye):
    X=             -7.3428    Y=             -1.2946    Z=              0.0013  Tot=              7.4561
 Quadrupole moment (field-independent basis, Debye-Ang):
   XX=            -85.7018   YY=            -66.2300   ZZ=            -65.6670
   XY=              3.4597   XZ=             -0.0051   YZ=             -0.0045

 Normal termination of Gaussian 09 at Fri Aug 27 09:57:38 2021.
