 Gaussian 09, Revision E.01,
 Gaussian 09:  ES64L-G09RevE.01 30-Nov-2015

 ----------------
 #P G4 OPT=calcfc
 ----------------

 --------
 NTBZAM01
 --------
 Symbolic Z-matrix:
 Charge =  0 Multiplicity = 1

 SCF Done:  E(RB3LYP) =  -605.414808285     A.U. after   18 cycles
 SCF Done:  E(RB3LYP) =  -605.480125148     A.U. after   13 cycles
 SCF Done:  E(RB3LYP) =  -605.495480146     A.U. after   16 cycles
 SCF Done:  E(RB3LYP) =  -605.496147052     A.U. after   14 cycles
 SCF Done:  E(RB3LYP) =  -605.496481997     A.U. after   14 cycles
 SCF Done:  E(RB3LYP) =  -605.450222739     A.U. after   14 cycles
 SCF Done:  E(RB3LYP) =  -605.496549801     A.U. after   11 cycles
 SCF Done:  E(RB3LYP) =  -605.489620932     A.U. after   16 cycles
 SCF Done:  E(RB3LYP) =  -605.496613518     A.U. after   11 cycles
 SCF Done:  E(RB3LYP) =  -605.493536798     A.U. after   15 cycles
 SCF Done:  E(RB3LYP) =  -605.496974072     A.U. after   11 cycles
 SCF Done:  E(RB3LYP) =  -605.496974804     A.U. after    8 cycles
 SCF Done:  E(RB3LYP) =  -605.496974973     A.U. after    8 cycles
 Optimization completed.
    -- Stationary point found.
 Normal termination of Gaussian 09 at Fri Aug 27 07:41:31 2021.

 ----------------------------------------------------------
 #P Geom=AllCheck Guess=TCheck SCRF=Check B3LYP/GTBas3 Freq
 ----------------------------------------------------------

 Structure from the checkpoint file:  "/public/home/users/caep010/.cache/gau_scr/Gau-220320.chk"
 --------
 NTBZAM01
 --------
 Charge =  0 Multiplicity = 1

 SCF Done:  E(RB3LYP) =  -605.496974973     A.U. after    1 cycles

  Exact polarizability: 147.429  -1.555 105.338   0.144   0.937  43.644
 Approx polarizability: 217.334   3.238 216.262  -2.080   3.400  72.583

                      1                      2                      3
                      A                      A                      A
 Frequencies --     52.3926                74.2174                81.4633
 Red. masses --      9.2589                 5.0004                 8.0877
 Frc consts  --      0.0150                 0.0162                 0.0316
 IR Inten    --      3.6939                 1.7120                 4.8374

                      4                      5                      6
                      A                      A                      A
 Frequencies --    160.9862               239.7719               280.0460
 Red. masses --      7.5630                 5.9831                 5.7251
 Frc consts  --      0.1155                 0.2027                 0.2645
 IR Inten    --      7.6128                 4.3466                 2.6320

                      7                      8                      9
                      A                      A                      A
 Frequencies --    293.6540               394.9678               422.2614
 Red. masses --     10.4436                 1.2390                 3.0422
 Frc consts  --      0.5306                 0.1139                 0.3196
 IR Inten    --      0.0586               162.7281                 1.1256

                     10                     11                     12
                      A                      A                      A
 Frequencies --    440.2374               480.8693               510.4403
 Red. masses --      3.2872                 3.9808                 6.6979
 Frc consts  --      0.3754                 0.5423                 1.0282
 IR Inten    --     12.7623                 7.9564                 5.8392

                     13                     14                     15
                      A                      A                      A
 Frequencies --    546.0589               564.3398               638.5074
 Red. masses --      5.0674                 1.2762                 6.5921
 Frc consts  --      0.8903                 0.2395                 1.5835
 IR Inten    --      4.0870                23.9096                 1.9326

                     16                     17                     18
                      A                      A                      A
 Frequencies --    645.6900               698.8150               746.1537
 Red. masses --      4.0535                 4.4662                 3.0376
 Frc consts  --      0.9957                 1.2850                 0.9964
 IR Inten    --     11.6662                 2.3969                58.9647

                     19                     20                     21
                      A                      A                      A
 Frequencies --    769.0913               812.9338               867.2989
 Red. masses --      5.4249                 5.6758                 1.3352
 Frc consts  --      1.8906                 2.2100                 0.5918
 IR Inten    --     26.0565                 1.3470                 4.7100

                     22                     23                     24
                      A                      A                      A
 Frequencies --    872.4145               910.7723               980.6045
 Red. masses --      7.0661                 1.8911                 1.3360
 Frc consts  --      3.1686                 0.9243                 0.7569
 IR Inten    --     32.8630                15.9447                 0.9240

                     25                     26                     27
                      A                      A                      A
 Frequencies --   1012.1908              1028.4001              1090.2603
 Red. masses --      1.3618                 2.8765                 1.8602
 Frc consts  --      0.8220                 1.7924                 1.3028
 IR Inten    --      0.9322                 6.1884                 7.1815

                     28                     29                     30
                      A                      A                      A
 Frequencies --   1123.1051              1126.1581              1139.6442
 Red. masses --      2.6882                 1.4609                 2.7245
 Frc consts  --      1.9978                 1.0916                 2.0849
 IR Inten    --     29.6319                 7.0459                 4.3973

                     31                     32                     33
                      A                      A                      A
 Frequencies --   1197.2384              1315.1539              1356.9998
 Red. masses --      1.2709                 1.3207                 5.9939
 Frc consts  --      1.0733                 1.3458                 6.5031
 IR Inten    --      0.5105                 0.7594               150.5270

                     34                     35                     36
                      A                      A                      A
 Frequencies --   1367.7274              1396.1189              1431.2810
 Red. masses --      4.8522                12.9853                 3.4341
 Frc consts  --      5.3480                14.9124                 4.1449
 IR Inten    --    191.4090               210.5606                12.4180

                     37                     38                     39
                      A                      A                      A
 Frequencies --   1517.8219              1608.3482              1618.4226
 Red. masses --      2.3968                 9.4726                 1.2464
 Frc consts  --      3.2533                14.4371                 1.9234
 IR Inten    --      1.5591                75.7979               132.5698

                     40                     41                     42
                      A                      A                      A
 Frequencies --   1637.8731              1660.1391              1784.6797
 Red. masses --      5.8482                10.5373                 9.2883
 Frc consts  --      9.2434                17.1108                17.4304
 IR Inten    --      2.3404               141.7472               243.7534

                     43                     44                     45
                      A                      A                      A
 Frequencies --   3192.8217              3216.7860              3238.4013
 Red. masses --      1.0891                 1.0891                 1.0928
 Frc consts  --      6.5412                 6.6397                 6.7523
 IR Inten    --      5.8862                 1.2082                 1.0865

                     46                     47                     48
                      A                      A                      A
 Frequencies --   3238.9189              3592.3355              3719.6371
 Red. masses --      1.0925                 1.0457                 1.1022
 Frc consts  --      6.7527                 7.9509                 8.9853
 IR Inten    --      1.8353                48.2502                34.4448

 - Thermochemistry -
 -------------------
 Temperature   298.150 Kelvin.  Pressure   1.00000 Atm.
 Atom     1 has atomic number  8 and mass  15.99491

 Molecular mass:   166.03784 amu.
 Principal axes and moments of inertia in atomic units:
                           1         2         3
     Eigenvalues --   609.057063813.889994393.61202
           X            0.99993  -0.01092   0.00371
           Y            0.01093   0.99994  -0.00072
           Z           -0.00370   0.00076   0.99999
 This molecule is an asymmetric top.
 Rotational symmetry number  1.
 Warning -- assumption of classical behavior for rotation
           may cause significant error
 Rotational temperatures (Kelvin)      0.14221     0.02271     0.01971
 Rotational constants (GHZ):           2.96317     0.47320     0.41076
 Zero-point vibrational energy     341500.6 (Joules/Mol)
                                   81.62061 (Kcal/Mol)
 Warning -- explicit consideration of  14 degrees of freedom as
           vibrations may cause significant error
 Vibrational temperatures:     75.38   106.78   117.21   231.62   344.98
          (Kelvin)            402.92   422.50   568.27   607.54   633.40
                              691.86   734.41   785.66   811.96   918.67
                              929.00  1005.44  1073.55  1106.55  1169.63
                             1247.85  1255.21  1310.40  1410.87  1456.31
                             1479.64  1568.64  1615.90  1620.29  1639.69
                             1722.56  1892.21  1952.42  1967.85  2008.70
                             2059.29  2183.80  2314.05  2328.55  2356.53
                             2388.57  2567.75  4593.75  4628.23  4659.33
                             4660.08  5168.56  5351.72

 Zero-point correction=                           0.130071 (Hartree/Particle)
 Thermal correction to Energy=                    0.140088
 Thermal correction to Enthalpy=                  0.141032
 Thermal correction to Gibbs Free Energy=         0.093578
 Sum of electronic and zero-point Energies=           -605.366904
 Sum of electronic and thermal Energies=              -605.356887
 Sum of electronic and thermal Enthalpies=            -605.355942
 Sum of electronic and thermal Free Energies=         -605.403397

                     E (Thermal)             CV                S
                      KCal/Mol        Cal/Mol-Kelvin    Cal/Mol-Kelvin
 Total                   87.907             37.601             99.876
 Electronic               0.000              0.000              0.000
 Translational            0.889              2.981             41.229
 Rotational               0.889              2.981             30.702
 Vibrational             86.129             31.640             27.944
 Vibration     1          0.596              1.977              4.725
 Vibration     2          0.599              1.966              4.038
 Vibration     3          0.600              1.962              3.855
 Vibration     4          0.622              1.890              2.538
 Vibration     5          0.657              1.780              1.805
 Vibration     6          0.680              1.711              1.533
 Vibration     7          0.688              1.686              1.453
 Vibration     8          0.762              1.481              0.981
 Vibration     9          0.785              1.422              0.884
 Vibration    10          0.800              1.382              0.826
 Vibration    11          0.837              1.292              0.708
 Vibration    12          0.866              1.227              0.633
 Vibration    13          0.901              1.148              0.552
 Vibration    14          0.920              1.108              0.515

 Optimization completed.
    -- Stationary point found.
 Normal termination of Gaussian 09 at Fri Aug 27 07:43:40 2021.

 -----------------------------------------------------------------
 #P Geom=AllCheck Guess=TCheck SCRF=Check CCSD(T,E4T,FrzG4)/GTBas1
 -----------------------------------------------------------------

 Structure from the checkpoint file:  "/public/home/users/caep010/.cache/gau_scr/Gau-220320.chk"
 --------
 NTBZAM01
 --------
 Charge =  0 Multiplicity = 1

 SCF Done:  E(RHF) =  -601.952157068     A.U. after   15 cycles
 E2 =    -0.1761045335D+01 EUMP2 =    -0.60371320240290D+03
 CCSD(T)
 CCSD(T)= -0.60381631067D+03
 6334\MP4SDQ=-603.7430075\CCSD=-603.7380307\CCSD(T)=-603.8163107\RMSD=4
 Normal termination of Gaussian 09 at Fri Aug 27 08:36:15 2021.

 ---------------------------------------------------------
 #P Geom=AllCheck Guess=TCheck SCRF=Check MP4=FrzG4/GTBas2
 ---------------------------------------------------------

 Structure from the checkpoint file:  "/public/home/users/caep010/.cache/gau_scr/Gau-220320.chk"
 --------
 NTBZAM01
 --------
 Charge =  0 Multiplicity = 1

 SCF Done:  E(RHF) =  -601.970220639     A.U. after   14 cycles
 E2 =    -0.1784324343D+01 EUMP2 =    -0.60375454498200D+03
 Normal termination of Gaussian 09 at Fri Aug 27 08:55:42 2021.

 ---------------------------------------------------------
 #P Geom=AllCheck Guess=TCheck SCRF=Check MP4=FrzG4/GTBas3
 ---------------------------------------------------------

 Structure from the checkpoint file:  "/public/home/users/caep010/.cache/gau_scr/Gau-220320.chk"
 --------
 NTBZAM01
 --------
 Charge =  0 Multiplicity = 1

 SCF Done:  E(RHF) =  -602.013844841     A.U. after   12 cycles
 E2 =    -0.2103045929D+01 EUMP2 =    -0.60411689076966D+03
 Normal termination of Gaussian 09 at Fri Aug 27 11:33:38 2021.

 -----------------------------------------------------------
 #P Geom=AllCheck Guess=TCheck SCRF=Check MP2=Full/GTLargeXP
 -----------------------------------------------------------

 Structure from the checkpoint file:  "/public/home/users/caep010/.cache/gau_scr/Gau-220320.chk"
 --------
 NTBZAM01
 --------
 Charge =  0 Multiplicity = 1

 SCF Done:  E(RHF) =  -602.163913008     A.U. after   15 cycles
 E2 =    -0.2759824259D+01 EUMP2 =    -0.60492373726727D+03
 Normal termination of Gaussian 09 at Fri Aug 27 11:50:27 2021.
 SCF Done:  E(RHF) =  -602.211787924     A.U. after   10 cycles
 Normal termination of Gaussian 09 at Fri Aug 27 11:55:50 2021.

                         Standard orientation:
 ---------------------------------------------------------------------
 Center     Atomic      Atomic             Coordinates (Angstroms)
 Number     Number       Type             X           Y           Z
 ---------------------------------------------------------------------
      1          8           0       -3.425176   -1.162176    0.300587
      2          6           0       -2.858087   -0.120792    0.029844
      3          7           0       -3.539030    1.033451   -0.255418
      4          6           0       -1.355175   -0.022998    0.017915
      5          6           0       -0.661325    1.187250    0.125685
      6          6           0       -0.640559   -1.221464   -0.077934
      7          1           0       -1.198952   -2.147710   -0.135696
      8          1           0       -1.198643    2.120725    0.249622
      9          1           0       -4.537424    0.936906   -0.359567
     10          6           0        0.746720   -1.217503   -0.093853
     11          1           0        1.321605   -2.129854   -0.175778
     12          6           0        1.409028    0.001618    0.002633
     13          7           0        2.884488    0.017384   -0.012120
     14          8           0        3.459983   -1.057075   -0.117875
     15          8           0        3.439320    1.104511    0.081047
     16          6           0        0.728071    1.206850    0.119873
     17          1           0        1.288489    2.127264    0.209096
     18          1           0       -3.098340    1.776981   -0.769957
 ---------------------------------------------------------------------

 SCF Done:  E(RHF) =  -602.221030467     A.U. after    8 cycles

 The electronic state is 1-A.
 Alpha  occ. eigenvalues --  -20.60923 -20.60874 -20.54228 -15.86173 -15.60385
 Alpha  occ. eigenvalues --  -11.38002 -11.32448 -11.28890 -11.28544 -11.28311
 Alpha  occ. eigenvalues --  -11.28238 -11.27396  -1.61407  -1.40823  -1.40759
 Alpha  occ. eigenvalues --   -1.23549  -1.21043  -1.10936  -1.06444  -0.98663
 Alpha  occ. eigenvalues --   -0.88020  -0.87311  -0.81313  -0.79253  -0.76162
 Alpha  occ. eigenvalues --   -0.73942  -0.72872  -0.70681  -0.67175  -0.65752
 Alpha  occ. eigenvalues --   -0.64350  -0.63584  -0.60454  -0.58514  -0.54175
 Alpha  occ. eigenvalues --   -0.54027  -0.50513  -0.50453  -0.46385  -0.45855
 Alpha  occ. eigenvalues --   -0.43967  -0.38952  -0.37927
 Alpha virt. eigenvalues --    0.01533   0.02361   0.03906   0.04304   0.04691
 Alpha virt. eigenvalues --    0.05732   0.05959   0.06952   0.07120   0.07474
 Alpha virt. eigenvalues --    0.07886   0.08119   0.08285   0.09392   0.09480

 Mulliken charges:
               1
     1  O   -0.605245
     2  C    0.458906
     3  N   -0.714892
     4  C    0.217923
     5  C   -0.226488
     6  C   -0.209479
     7  H    0.262289
     8  H    0.222159
     9  H    0.360686
    10  C   -0.182308
    11  H    0.270670
    12  C    0.091970
    13  N    0.522644
    14  O   -0.424814
    15  O   -0.430718
    16  C   -0.212430
    17  H    0.267269
    18  H    0.331858
 Sum of Mulliken charges =  -0.00000

 Dipole moment (field-independent basis, Debye):
    X=             -3.4820    Y=              3.0644    Z=             -1.4315  Tot=              4.8543
 Quadrupole moment (field-independent basis, Debye-Ang):
   XX=            -87.4708   YY=            -64.7300   ZZ=            -69.6393
   XY=            -12.5513   XZ=              5.9022   YZ=             -0.4882

 Normal termination of Gaussian 09 at Fri Aug 27 12:32:38 2021.
