 Gaussian 09, Revision E.01,
 Gaussian 09:  ES64L-G09RevE.01 30-Nov-2015

 ----------------
 #P G4 OPT=calcfc
 ----------------

 ------
 NIVPAJ
 ------
 Symbolic Z-matrix:
 Charge =  0 Multiplicity = 1

 SCF Done:  E(RB3LYP) =  -606.526464987     A.U. after   15 cycles
 SCF Done:  E(RB3LYP) =  -606.631209202     A.U. after   12 cycles
 SCF Done:  E(RB3LYP) =  -606.680206698     A.U. after   14 cycles
 SCF Done:  E(RB3LYP) =  -606.683060268     A.U. after   13 cycles
 SCF Done:  E(RB3LYP) =  -606.683349640     A.U. after   13 cycles
 SCF Done:  E(RB3LYP) =  -606.665363111     A.U. after   15 cycles
 SCF Done:  E(RB3LYP) =  -606.683425955     A.U. after   10 cycles
 SCF Done:  E(RB3LYP) =  -606.683545592     A.U. after   11 cycles
 SCF Done:  E(RB3LYP) =  -606.683573868     A.U. after   11 cycles
 SCF Done:  E(RB3LYP) =  -606.683581039     A.U. after   10 cycles
 SCF Done:  E(RB3LYP) =  -606.683584339     A.U. after    8 cycles
 SCF Done:  E(RB3LYP) =  -606.683584741     A.U. after    8 cycles
 SCF Done:  E(RB3LYP) =  -606.683584802     A.U. after    8 cycles
 Optimization completed.
    -- Stationary point found.
 Normal termination of Gaussian 09 at Fri Aug 27 07:11:06 2021.

 ----------------------------------------------------------
 #P Geom=AllCheck Guess=TCheck SCRF=Check B3LYP/GTBas3 Freq
 ----------------------------------------------------------

 Structure from the checkpoint file:  "/public/home/users/caep010/.cache/gau_scr/Gau-4687.chk"
 ------
 NIVPAJ
 ------
 Charge =  0 Multiplicity = 1

 SCF Done:  E(RB3LYP) =  -606.683584802     A.U. after    1 cycles

  Exact polarizability: 150.537   3.141 118.831   0.069  -0.002  47.309
 Approx polarizability: 231.505   3.529 230.392   0.093  -0.224  76.808

                      1                      2                      3
                      A                      A                      A
 Frequencies --     40.4664                60.3457                83.5156
 Red. masses --      5.5601                 5.1094                 3.5343
 Frc consts  --      0.0054                 0.0110                 0.0145
 IR Inten    --      0.8164                44.1163                20.6288

                      4                      5                      6
                      A                      A                      A
 Frequencies --    136.9505               175.4321               214.5571
 Red. masses --      1.5763                 5.8709                 1.6058
 Frc consts  --      0.0174                 0.1065                 0.0436
 IR Inten    --     63.7209                 2.5336                23.2824

                      7                      8                      9
                      A                      A                      A
 Frequencies --    215.5159               285.2092               288.5620
 Red. masses --      1.4392                 4.3391                 8.0196
 Frc consts  --      0.0394                 0.2080                 0.3934
 IR Inten    --    154.2242                 0.4954                 4.6073

                     10                     11                     12
                      A                      A                      A
 Frequencies --    345.8964               404.1181               452.1132
 Red. masses --      6.5516                 4.0739                 3.2180
 Frc consts  --      0.4618                 0.3920                 0.3876
 IR Inten    --      1.8269                 1.6807                 0.2270

                     13                     14                     15
                      A                      A                      A
 Frequencies --    488.4227               535.4099               588.9652
 Red. masses --      7.0399                 5.2077                 5.3135
 Frc consts  --      0.9895                 0.8796                 1.0859
 IR Inten    --      7.5136                 1.4438                 1.9217

                     16                     17                     18
                      A                      A                      A
 Frequencies --    595.0837               605.5333               642.3566
 Red. masses --      3.7339                 1.0831                 4.7895
 Frc consts  --      0.7791                 0.2340                 1.1644
 IR Inten    --      0.9225                 7.9580                 2.3341

                     19                     20                     21
                      A                      A                      A
 Frequencies --    713.3616               747.1483               776.9506
 Red. masses --      4.3515                 5.1937                 2.4099
 Frc consts  --      1.3047                 1.7082                 0.8571
 IR Inten    --      1.3770                 9.5749                28.6533

                     22                     23                     24
                      A                      A                      A
 Frequencies --    827.4169               854.9549               877.8294
 Red. masses --      1.9860                 8.8012                 1.4556
 Frc consts  --      0.8011                 3.7903                 0.6609
 IR Inten    --      4.9051                19.1179                12.5054

                     25                     26                     27
                      A                      A                      A
 Frequencies --    962.6006               982.5576              1037.3546
 Red. masses --      1.2878                 3.0567                 1.8055
 Frc consts  --      0.7031                 1.7387                 1.1447
 IR Inten    --      0.4213                15.3130                 0.0044

                     28                     29                     30
                      A                      A                      A
 Frequencies --   1060.9978              1090.0947              1113.0553
 Red. masses --      1.8225                 5.9187                 3.0809
 Frc consts  --      1.2088                 4.1438                 2.2489
 IR Inten    --      1.0172                84.7454                30.7261

                     31                     32                     33
                      A                      A                      A
 Frequencies --   1180.8275              1186.0452              1227.7589
 Red. masses --      1.6016                 1.5534                 1.2019
 Frc consts  --      1.3158                 1.2875                 1.0674
 IR Inten    --     95.8908                 5.5144                91.6597

                     34                     35                     36
                      A                      A                      A
 Frequencies --   1256.0254              1299.6469              1301.5505
 Red. masses --      1.0706                 3.7698                 1.6300
 Frc consts  --      0.9951                 3.7516                 1.6269
 IR Inten    --      0.3289               158.9594                34.8269

                     37                     38                     39
                      A                      A                      A
 Frequencies --   1366.7824              1405.0633              1453.3471
 Red. masses --      3.4009                 5.4091                 1.5590
 Frc consts  --      3.7432                 6.2917                 1.9402
 IR Inten    --    196.9872                58.5140                27.3005

                     40                     41                     42
                      A                      A                      A
 Frequencies --   1479.5848              1505.3211              1518.4319
 Red. masses --      3.4018                 1.1514                 2.4616
 Frc consts  --      4.3877                 1.5373                 3.3439
 IR Inten    --     68.3289                20.5594                26.0058

                     43                     44                     45
                      A                      A                      A
 Frequencies --   1561.8729              1617.8890              1618.9263
 Red. masses --      4.0072                 6.5046                 1.8255
 Frc consts  --      5.7595                10.0315                 2.8190
 IR Inten    --    162.2733               213.5689                14.0940

                     46                     47                     48
                      A                      A                      A
 Frequencies --   1671.0166              2960.6603              2981.1489
 Red. masses --      6.9066                 1.0551                 1.1043
 Frc consts  --     11.3626                 5.4492                 5.7822
 IR Inten    --    246.0015                39.7108                41.4456

                     49                     50                     51
                      A                      A                      A
 Frequencies --   3182.5506              3204.4433              3237.4471
 Red. masses --      1.0892                 1.0890                 1.0916
 Frc consts  --      6.5001                 6.5885                 6.7407
 IR Inten    --      7.2903                 2.2842                 2.3413

                     52                     53                     54
                      A                      A                      A
 Frequencies --   3577.3983              3734.8906              3846.0669
 Red. masses --      1.0461                 1.1029                 1.0666
 Frc consts  --      7.8880                 9.0644                 9.2954
 IR Inten    --     92.9042                75.0835                40.5700

 - Thermochemistry -
 -------------------
 Temperature   298.150 Kelvin.  Pressure   1.00000 Atm.
 Atom     1 has atomic number  6 and mass  12.00000

 Molecular mass:   168.05349 amu.
 Principal axes and moments of inertia in atomic units:
                           1         2         3
     Eigenvalues --   830.143813217.710464036.51435
           X            0.99992   0.01243   0.00008
           Y           -0.01243   0.99992   0.00073
           Z           -0.00008  -0.00073   1.00000
 This molecule is an asymmetric top.
 Rotational symmetry number  1.
 Warning -- assumption of classical behavior for rotation
           may cause significant error
 Rotational temperatures (Kelvin)      0.10434     0.02692     0.02146
 Rotational constants (GHZ):           2.17401     0.56088     0.44710
 Zero-point vibrational energy     398221.7 (Joules/Mol)
                                   95.17727 (Kcal/Mol)
 Warning -- explicit consideration of  17 degrees of freedom as
           vibrations may cause significant error
 Vibrational temperatures:     58.22    86.82   120.16   197.04   252.41
          (Kelvin)            308.70   310.08   410.35   415.18   497.67
                              581.44   650.49   702.73   770.33   847.39
                              856.19   871.23   924.21  1026.37  1074.98
                             1117.86  1190.47  1230.09  1263.00  1384.97
                             1413.68  1492.52  1526.54  1568.40  1601.44
                             1698.95  1706.45  1766.47  1807.14  1869.90
                             1872.64  1966.49  2021.57  2091.04  2128.79
                             2165.82  2184.68  2247.18  2327.78  2329.27
                             2404.22  4259.72  4289.20  4578.97  4610.47
                             4657.96  5147.07  5373.67  5533.63

 Zero-point correction=                           0.151675 (Hartree/Particle)
 Thermal correction to Energy=                    0.162956
 Thermal correction to Enthalpy=                  0.163900
 Thermal correction to Gibbs Free Energy=         0.113656
 Sum of electronic and zero-point Energies=           -606.531910
 Sum of electronic and thermal Energies=              -606.520629
 Sum of electronic and thermal Enthalpies=            -606.519685
 Sum of electronic and thermal Free Energies=         -606.569929

                     E (Thermal)             CV                S
                      KCal/Mol        Cal/Mol-Kelvin    Cal/Mol-Kelvin
 Total                  102.256             41.393            105.747
 Electronic               0.000              0.000              0.000
 Translational            0.889              2.981             41.265
 Rotational               0.889              2.981             30.756
 Vibrational            100.479             35.431             33.725
 Vibration     1          0.594              1.981              5.236
 Vibration     2          0.597              1.973              4.446
 Vibration     3          0.600              1.961              3.807
 Vibration     4          0.614              1.916              2.846
 Vibration     5          0.627              1.873              2.376
 Vibration     6          0.644              1.819              2.005
 Vibration     7          0.645              1.817              1.996
 Vibration     8          0.683              1.701              1.502
 Vibration     9          0.685              1.695              1.482
 Vibration    10          0.724              1.584              1.185
 Vibration    11          0.769              1.461              0.948
 Vibration    12          0.811              1.356              0.789
 Vibration    13          0.844              1.276              0.688
 Vibration    14          0.890              1.172              0.575
 Vibration    15          0.946              1.055              0.469
 Vibration    16          0.953              1.042              0.458
 Vibration    17          0.964              1.020              0.440

 Optimization completed.
    -- Stationary point found.
 Normal termination of Gaussian 09 at Fri Aug 27 07:13:32 2021.

 -----------------------------------------------------------------
 #P Geom=AllCheck Guess=TCheck SCRF=Check CCSD(T,E4T,FrzG4)/GTBas1
 -----------------------------------------------------------------

 Structure from the checkpoint file:  "/public/home/users/caep010/.cache/gau_scr/Gau-4687.chk"
 ------
 NIVPAJ
 ------
 Charge =  0 Multiplicity = 1

 SCF Done:  E(RHF) =  -603.082525727     A.U. after   14 cycles
 E2 =    -0.1770040166D+01 EUMP2 =    -0.60485256589303D+03
 CCSD(T)
 CCSD(T)= -0.60496459154D+03
 4SDTQ=-604.9779197\MP4SDQ=-604.8925367\CCSD=-604.8894932\CCSD(T)=-604.
 Normal termination of Gaussian 09 at Fri Aug 27 08:15:36 2021.

 ---------------------------------------------------------
 #P Geom=AllCheck Guess=TCheck SCRF=Check MP4=FrzG4/GTBas2
 ---------------------------------------------------------

 Structure from the checkpoint file:  "/public/home/users/caep010/.cache/gau_scr/Gau-4687.chk"
 ------
 NIVPAJ
 ------
 Charge =  0 Multiplicity = 1

 SCF Done:  E(RHF) =  -603.102560184     A.U. after   20 cycles
 E2 =    -0.1794835542D+01 EUMP2 =    -0.60489739572661D+03
 Normal termination of Gaussian 09 at Fri Aug 27 08:37:37 2021.

 ---------------------------------------------------------
 #P Geom=AllCheck Guess=TCheck SCRF=Check MP4=FrzG4/GTBas3
 ---------------------------------------------------------

 Structure from the checkpoint file:  "/public/home/users/caep010/.cache/gau_scr/Gau-4687.chk"
 ------
 NIVPAJ
 ------
 Charge =  0 Multiplicity = 1

 SCF Done:  E(RHF) =  -603.151378134     A.U. after   13 cycles
 E2 =    -0.2128286093D+01 EUMP2 =    -0.60527966422680D+03
 Normal termination of Gaussian 09 at Fri Aug 27 11:13:26 2021.

 -----------------------------------------------------------
 #P Geom=AllCheck Guess=TCheck SCRF=Check MP2=Full/GTLargeXP
 -----------------------------------------------------------

 Structure from the checkpoint file:  "/public/home/users/caep010/.cache/gau_scr/Gau-4687.chk"
 ------
 NIVPAJ
 ------
 Charge =  0 Multiplicity = 1

 SCF Done:  E(RHF) =  -603.303898635     A.U. after   14 cycles
 E2 =    -0.2790796386D+01 EUMP2 =    -0.60609469502107D+03
 Normal termination of Gaussian 09 at Fri Aug 27 11:33:20 2021.
 SCF Done:  E(RHF) =  -603.352601656     A.U. after   10 cycles
 Normal termination of Gaussian 09 at Fri Aug 27 11:39:25 2021.

                         Standard orientation:
 ---------------------------------------------------------------------
 Center     Atomic      Atomic             Coordinates (Angstroms)
 Number     Number       Type             X           Y           Z
 ---------------------------------------------------------------------
      1          6           0       -1.712281   -0.444338   -0.001379
      2          6           0       -1.106661    0.792574   -0.003347
      3          1           0       -1.723295    1.683378   -0.004516
      4          6           0       -0.925211   -1.614432   -0.001817
      5          1           0       -1.396381   -2.591542   -0.000538
      6          6           0        0.444446   -1.507918   -0.002620
      7          1           0        1.081971   -2.381181   -0.001362
      8          6           0       -3.215635   -0.576433    0.000154
      9          6           0        1.070259   -0.251333   -0.003209
     10          7           0        2.515513   -0.233587    0.002857
     11          8           0        3.102359    0.860588    0.012735
     12          8           0        3.116489   -1.302932   -0.000592
     13          1           0       -3.517271   -1.156930   -0.887500
     14          1           0       -3.514691   -1.169631    0.880241
     15          6           0        0.301874    0.942316   -0.005756
     16          7           0        0.835392    2.185430   -0.020513
     17          1           0        0.229602    2.983911    0.037770
     18          1           0        1.837375    2.279347    0.025374
     19          8           0       -3.821285    0.700437    0.010186
     20          1           0       -4.774888    0.582386    0.003333
 ---------------------------------------------------------------------

 SCF Done:  E(RHF) =  -603.362158724     A.U. after    8 cycles

 The electronic state is 1-A.
 Alpha  occ. eigenvalues --  -20.58708 -20.58499 -20.58131 -15.84382 -15.58186
 Alpha  occ. eigenvalues --  -11.32641 -11.30775 -11.28652 -11.27457 -11.26486
 Alpha  occ. eigenvalues --  -11.23811 -11.23712  -1.58883  -1.38950  -1.38084
 Alpha  occ. eigenvalues --   -1.25829  -1.16620  -1.09875  -1.02001  -0.99146
 Alpha  occ. eigenvalues --   -0.90095  -0.85589  -0.82473  -0.76391  -0.74267
 Alpha  occ. eigenvalues --   -0.71626  -0.70881  -0.70592  -0.69754  -0.65957
 Alpha  occ. eigenvalues --   -0.65116  -0.61719  -0.61308  -0.57871  -0.55596
 Alpha  occ. eigenvalues --   -0.52451  -0.52076  -0.48976  -0.48745  -0.48065
 Alpha  occ. eigenvalues --   -0.46166  -0.44445  -0.36431  -0.31210
 Alpha virt. eigenvalues --    0.02545   0.03734   0.04105   0.04220   0.05229
 Alpha virt. eigenvalues --    0.05575   0.06030   0.07355   0.07663   0.08207
 Alpha virt. eigenvalues --    0.08314   0.08402   0.09527   0.09818   0.09863

 Mulliken charges:
               1
     1  C    0.230333
     2  C   -0.253934
     3  H    0.210354
     4  C   -0.338428
     5  H    0.206568
     6  C   -0.134028
     7  H    0.262139
     8  C   -0.201719
     9  C    0.035880
    10  N    0.494799
    11  O   -0.473572
    12  O   -0.453493
    13  H    0.174662
    14  H    0.174365
    15  C    0.341273
    16  N   -0.786677
    17  H    0.333485
    18  H    0.389188
    19  O   -0.592068
    20  H    0.380874
 Sum of Mulliken charges =  -0.00000

 Dipole moment (field-independent basis, Debye):
    X=             -6.4904    Y=              0.4094    Z=              0.1106  Tot=              6.5042
 Quadrupole moment (field-independent basis, Debye-Ang):
   XX=            -71.4993   YY=            -61.9991   ZZ=            -72.5970
   XY=              6.8480   XZ=              0.1794   YZ=              0.4098

 Normal termination of Gaussian 09 at Fri Aug 27 12:20:35 2021.
