 Gaussian 09, Revision E.01,
 Gaussian 09:  ES64L-G09RevE.01 30-Nov-2015

 ----------------
 #P G4 OPT=calcfc
 ----------------

 ------
 NIMFOE
 ------
 Symbolic Z-matrix:
 Charge =  0 Multiplicity = 1

 SCF Done:  E(RB3LYP) =  -619.297207836     A.U. after   16 cycles
 SCF Done:  E(RB3LYP) =  -619.345231648     A.U. after   17 cycles
 SCF Done:  E(RB3LYP) =  -619.343843561     A.U. after   16 cycles
 SCF Done:  E(RB3LYP) =  -619.346619813     A.U. after   13 cycles
 SCF Done:  E(RB3LYP) =  -619.349439980     A.U. after   15 cycles
 SCF Done:  E(RB3LYP) =  -619.352408311     A.U. after   17 cycles
 SCF Done:  E(RB3LYP) =  -619.352131364     A.U. after   17 cycles
 SCF Done:  E(RB3LYP) =  -619.352698711     A.U. after   13 cycles
 SCF Done:  E(RB3LYP) =  -619.352765856     A.U. after   13 cycles
 SCF Done:  E(RB3LYP) =  -619.352807093     A.U. after   13 cycles
 SCF Done:  E(RB3LYP) =  -619.352812842     A.U. after   12 cycles
 SCF Done:  E(RB3LYP) =  -619.352813030     A.U. after    9 cycles
 Optimization completed.
    -- Stationary point found.
 Normal termination of Gaussian 09 at Wed Aug 25 05:50:22 2021.

 ----------------------------------------------------------
 #P Geom=AllCheck Guess=TCheck SCRF=Check B3LYP/GTBas3 Freq
 ----------------------------------------------------------

 Structure from the checkpoint file:  "/public/home/users/caep010/.cache/gau_scr/Gau-10316.chk"
 ------
 NIMFOE
 ------
 Charge =  0 Multiplicity = 1

 SCF Done:  E(RB3LYP) =  -619.352813030     A.U. after    1 cycles

  Exact polarizability: 109.636  -8.066  85.723   0.000   0.000  35.019
 Approx polarizability: 176.740 -31.818 172.180  -0.000   0.002  56.992

                      1                      2                      3
                      A                      A                      A
 Frequencies --     24.2464                88.2108               142.6031
 Red. masses --     14.8906                 8.7885                 9.4061
 Frc consts  --      0.0052                 0.0403                 0.1127
 IR Inten    --      0.3452                 5.2951                 2.0671

                      4                      5                      6
                      A                      A                      A
 Frequencies --    225.7628               265.8198               347.5253
 Red. masses --     12.0343                10.1109                14.2692
 Frc consts  --      0.3614                 0.4209                 1.0154
 IR Inten    --      2.0446                 1.2772                 4.4648

                      7                      8                      9
                      A                      A                      A
 Frequencies --    384.7671               410.6816               449.1439
 Red. masses --     12.8655                 2.9572                11.9763
 Frc consts  --      1.1222                 0.2939                 1.4235
 IR Inten    --     14.6544                17.4855                10.4882

                     10                     11                     12
                      A                      A                      A
 Frequencies --    540.4697               621.4379               627.8780
 Red. masses --      9.0811                 1.1786                 7.2635
 Frc consts  --      1.5629                 0.2682                 1.6871
 IR Inten    --      4.9223                31.6239                27.0896

                     13                     14                     15
                      A                      A                      A
 Frequencies --    641.3864               691.5043               741.5006
 Red. masses --      5.7169                 1.2085                 7.3783
 Frc consts  --      1.3856                 0.3405                 2.3902
 IR Inten    --      5.1098                86.4358                 0.0135

                     16                     17                     18
                      A                      A                      A
 Frequencies --    770.4371               776.8157               808.2092
 Red. masses --      8.9065                 8.7993                 8.2765
 Frc consts  --      3.1148                 3.1285                 3.1853
 IR Inten    --     44.3775                 0.8004                34.3733

                     19                     20                     21
                      A                      A                      A
 Frequencies --    854.0819               963.2849               998.6493
 Red. masses --      9.8520                 3.1118                 1.4087
 Frc consts  --      4.2342                 1.7013                 0.8277
 IR Inten    --     39.0165                 4.8765                 3.7327

                     22                     23                     24
                      A                      A                      A
 Frequencies --   1102.8112              1177.2938              1220.6640
 Red. masses --      4.9083                 2.3934                 2.1676
 Frc consts  --      3.5171                 1.9545                 1.9029
 IR Inten    --      0.5644                74.2861                40.2741

                     25                     26                     27
                      A                      A                      A
 Frequencies --   1335.5689              1376.1690              1388.7962
 Red. masses --      2.7433                 5.1147                 2.6329
 Frc consts  --      2.8831                 5.7071                 2.9920
 IR Inten    --    170.4641               403.8838                14.6496

                     28                     29                     30
                      A                      A                      A
 Frequencies --   1410.2813              1505.1507              1625.6995
 Red. masses --      2.3059                 2.8605                12.6395
 Frc consts  --      2.7021                 3.8181                19.6816
 IR Inten    --     18.5828               118.7322                74.6230

                     31                     32                     33
                      A                      A                      A
 Frequencies --   1672.2379              1829.5778              1853.2337
 Red. masses --      7.0020                 9.9924                 9.3660
 Frc consts  --     11.5364                19.7070                18.9525
 IR Inten    --    200.9918               555.2329               513.7659

                     34                     35                     36
                      A                      A                      A
 Frequencies --   3236.4088              3603.4034              3635.7685
 Red. masses --      1.0929                 1.0770                 1.0787
 Frc consts  --      6.7448                 8.2391                 8.4010
 IR Inten    --      7.1204                76.6750               127.7985

 - Thermochemistry -
 -------------------
 Temperature   298.150 Kelvin.  Pressure   1.00000 Atm.
 Atom     1 has atomic number  8 and mass  15.99491

 Molecular mass:   157.01236 amu.
 Principal axes and moments of inertia in atomic units:
                           1         2         3
     Eigenvalues --   758.201252166.783562924.98481
           X            1.00000   0.00070   0.00000
           Y           -0.00070   1.00000   0.00000
           Z           -0.00000  -0.00000   1.00000
 This molecule is an asymmetric top.
 Rotational symmetry number  1.
 Warning -- assumption of classical behavior for rotation
           may cause significant error
 Rotational temperatures (Kelvin)      0.11424     0.03997     0.02961
 Rotational constants (GHZ):           2.38029     0.83291     0.61701
 Zero-point vibrational energy     235350.2 (Joules/Mol)
                                   56.25005 (Kcal/Mol)
 Warning -- explicit consideration of  10 degrees of freedom as
           vibrations may cause significant error
 Vibrational temperatures:     34.89   126.92   205.17   324.82   382.45
          (Kelvin)            500.01   553.59   590.88   646.22   777.61
                              894.11   903.38   922.81   994.92  1066.85
                             1108.49  1117.66  1162.83  1228.83  1385.95
                             1436.83  1586.70  1693.86  1756.26  1921.58
                             1980.00  1998.17  2029.08  2165.57  2339.02
                             2405.97  2632.35  2666.39  4656.46  5184.49
                             5231.05

 Zero-point correction=                           0.089640 (Hartree/Particle)
 Thermal correction to Energy=                    0.098352
 Thermal correction to Enthalpy=                  0.099296
 Thermal correction to Gibbs Free Energy=         0.054244
 Sum of electronic and zero-point Energies=           -619.263173
 Sum of electronic and thermal Energies=              -619.254461
 Sum of electronic and thermal Enthalpies=            -619.253517
 Sum of electronic and thermal Free Energies=         -619.298569

                     E (Thermal)             CV                S
                      KCal/Mol        Cal/Mol-Kelvin    Cal/Mol-Kelvin
 Total                   61.717             31.653             94.820
 Electronic               0.000              0.000              0.000
 Translational            0.889              2.981             41.063
 Rotational               0.889              2.981             29.953
 Vibrational             59.939             25.692             23.804
 Vibration     1          0.593              1.985              6.252
 Vibration     2          0.601              1.957              3.699
 Vibration     3          0.616              1.911              2.769
 Vibration     4          0.650              1.802              1.912
 Vibration     5          0.672              1.736              1.623
 Vibration     6          0.725              1.580              1.177
 Vibration     7          0.754              1.503              1.020
 Vibration     8          0.775              1.447              0.924
 Vibration     9          0.808              1.363              0.798
 Vibration    10          0.896              1.161              0.564

 Optimization completed.
    -- Stationary point found.
 Normal termination of Gaussian 09 at Wed Aug 25 05:51:54 2021.

 -----------------------------------------------------------------
 #P Geom=AllCheck Guess=TCheck SCRF=Check CCSD(T,E4T,FrzG4)/GTBas1
 -----------------------------------------------------------------

 Structure from the checkpoint file:  "/public/home/users/caep010/.cache/gau_scr/Gau-10316.chk"
 ------
 NIMFOE
 ------
 Charge =  0 Multiplicity = 1

 SCF Done:  E(RHF) =  -615.919240787     A.U. after   15 cycles
 E2 =    -0.1706885324D+01 EUMP2 =    -0.61762612611063D+03
 CCSD(T)
 CCSD(T)= -0.61770761968D+03
 003\CCSD=-617.6363895\CCSD(T)=-617.7076197\RMSD=9.317e-09\PG=C01 [X(C4
 Normal termination of Gaussian 09 at Wed Aug 25 06:22:52 2021.

 ---------------------------------------------------------
 #P Geom=AllCheck Guess=TCheck SCRF=Check MP4=FrzG4/GTBas2
 ---------------------------------------------------------

 Structure from the checkpoint file:  "/public/home/users/caep010/.cache/gau_scr/Gau-10316.chk"
 ------
 NIMFOE
 ------
 Charge =  0 Multiplicity = 1

 SCF Done:  E(RHF) =  -615.936287412     A.U. after   14 cycles
 E2 =    -0.1730249792D+01 EUMP2 =    -0.61766653720401D+03
 Normal termination of Gaussian 09 at Wed Aug 25 06:35:35 2021.

 ---------------------------------------------------------
 #P Geom=AllCheck Guess=TCheck SCRF=Check MP4=FrzG4/GTBas3
 ---------------------------------------------------------

 Structure from the checkpoint file:  "/public/home/users/caep010/.cache/gau_scr/Gau-10316.chk"
 ------
 NIMFOE
 ------
 Charge =  0 Multiplicity = 1

 SCF Done:  E(RHF) =  -615.983247393     A.U. after   13 cycles
 E2 =    -0.2039313905D+01 EUMP2 =    -0.61802256129793D+03
 Normal termination of Gaussian 09 at Wed Aug 25 07:41:55 2021.

 -----------------------------------------------------------
 #P Geom=AllCheck Guess=TCheck SCRF=Check MP2=Full/GTLargeXP
 -----------------------------------------------------------

 Structure from the checkpoint file:  "/public/home/users/caep010/.cache/gau_scr/Gau-10316.chk"
 ------
 NIMFOE
 ------
 Charge =  0 Multiplicity = 1

 SCF Done:  E(RHF) =  -616.145029217     A.U. after   15 cycles
 E2 =    -0.2661403669D+01 EUMP2 =    -0.61880643288666D+03
 Normal termination of Gaussian 09 at Wed Aug 25 07:51:58 2021.
 SCF Done:  E(RHF) =  -616.193228447     A.U. after   10 cycles
 Normal termination of Gaussian 09 at Wed Aug 25 07:55:47 2021.

                         Standard orientation:
 ---------------------------------------------------------------------
 Center     Atomic      Atomic             Coordinates (Angstroms)
 Number     Number       Type             X           Y           Z
 ---------------------------------------------------------------------
      1          8           0       -0.450531    2.233687   -0.000051
      2          6           0        0.030173    1.130230   -0.000025
      3          7           0        1.440126    0.980340   -0.000053
      4          6           0       -0.645330   -0.177723    0.000015
      5          6           0        0.075593   -1.326496   -0.000026
      6          7           0        1.426267   -1.329656   -0.000116
      7          1           0        1.946563   -2.194405    0.000006
      8          1           0       -0.431748   -2.282470    0.000037
      9          7           0       -2.098384   -0.305340    0.000032
     10          8           0       -2.763788    0.714104    0.000066
     11          8           0       -2.555701   -1.448668   -0.000004
     12          6           0        2.207932   -0.162717    0.000011
     13          8           0        3.413001   -0.195621    0.000116
     14          1           0        1.955055    1.851683    0.000056
 ---------------------------------------------------------------------

 SCF Done:  E(RHF) =  -616.202840872     A.U. after    8 cycles

 The electronic state is 1-A.
 Alpha  occ. eigenvalues --  -20.61548 -20.60285 -20.57593 -20.56724 -15.87038
 Alpha  occ. eigenvalues --  -15.68077 -15.65159 -11.44804 -11.41587 -11.38707
 Alpha  occ. eigenvalues --  -11.33066  -1.61796  -1.46887  -1.43410  -1.40993
 Alpha  occ. eigenvalues --   -1.35049  -1.27401  -1.16293  -1.00443  -0.94853
 Alpha  occ. eigenvalues --   -0.92692  -0.82815  -0.80785  -0.75615  -0.74408
 Alpha  occ. eigenvalues --   -0.73929  -0.73189  -0.70580  -0.69465  -0.67098
 Alpha  occ. eigenvalues --   -0.64489  -0.60117  -0.56179  -0.52705  -0.51439
 Alpha  occ. eigenvalues --   -0.50449  -0.47046  -0.46772  -0.46148  -0.40981
 Alpha virt. eigenvalues --    0.01512   0.02319   0.03780   0.04077   0.04514
 Alpha virt. eigenvalues --    0.05707   0.06302   0.06892   0.07341   0.07449
 Alpha virt. eigenvalues --    0.08640   0.08717   0.09048   0.09605   0.10148

 Mulliken charges:
               1
     1  O   -0.542346
     2  C    0.469246
     3  N   -0.441035
     4  C    0.105048
     5  C    0.087147
     6  N   -0.422931
     7  H    0.402792
     8  H    0.294714
     9  N    0.503127
    10  O   -0.360572
    11  O   -0.480588
    12  C    0.588799
    13  O   -0.623106
    14  H    0.419704
 Sum of Mulliken charges =  -0.00000

 Dipole moment (field-independent basis, Debye):
    X=              3.5974    Y=             -4.0750    Z=              0.0002  Tot=              5.4358
 Quadrupole moment (field-independent basis, Debye-Ang):
   XX=            -85.5783   YY=            -59.2073   ZZ=            -59.9001
   XY=              0.2541   XZ=             -0.0002   YZ=              0.0000

 Normal termination of Gaussian 09 at Wed Aug 25 08:22:43 2021.
