 Gaussian 09, Revision E.01,
 Gaussian 09:  ES64L-G09RevE.01 30-Nov-2015

 -----
 #P G4
 -----

 --------
 NTPYRO11
 --------
 Symbolic Z-matrix:
 Charge =  0 Multiplicity = 1

 SCF Done:  E(RB3LYP) =  -527.895554806     A.U. after   16 cycles
 SCF Done:  E(RB3LYP) =  -527.966522935     A.U. after   14 cycles
 SCF Done:  E(RB3LYP) =  -527.984825789     A.U. after   14 cycles
 SCF Done:  E(RB3LYP) =  -527.985312678     A.U. after   13 cycles
 SCF Done:  E(RB3LYP) =  -527.985353156     A.U. after   10 cycles
 SCF Done:  E(RB3LYP) =  -527.985359065     A.U. after    9 cycles
 Optimization completed.
    -- Stationary point found.
 Normal termination of Gaussian 09 at Tue Aug 24 14:54:22 2021.

 ----------------------------------------------------------
 #P Geom=AllCheck Guess=TCheck SCRF=Check B3LYP/GTBas3 Freq
 ----------------------------------------------------------

 Structure from the checkpoint file:  "/public/home/users/caep010/.cache/gau_scr/Gau-103292.chk"
 --------
 NTPYRO11
 --------
 Charge =  0 Multiplicity = 1

 SCF Done:  E(RB3LYP) =  -527.985359065     A.U. after    1 cycles

  Exact polarizability:  84.283   0.004 134.136  -0.000  -0.000  33.754
 Approx polarizability: 166.539   0.001 286.558   0.000   0.000  55.288

                      1                      2                      3
                     A"                     A"                     A'
 Frequencies --     77.4302               114.0708               227.7356
 Red. masses --      7.8640                10.2259                 8.8947
 Frc consts  --      0.0278                 0.0784                 0.2718
 IR Inten    --      0.0001                10.5994                 6.1843

                      4                      5                      6
                     A"                     A'                     A"
 Frequencies --    290.8208               362.4008               437.2612
 Red. masses --      6.9957                12.5321                 3.1699
 Frc consts  --      0.3486                 0.9697                 0.3571
 IR Inten    --      0.5349                 0.3269                 0.0000

                      7                      8                      9
                     A'                     A"                     A'
 Frequencies --    474.3962               519.1357               549.3813
 Red. masses --      9.0529                 2.8558                 5.8747
 Frc consts  --      1.2004                 0.4535                 1.0447
 IR Inten    --      9.3999                 4.3118                 0.0012

                     10                     11                     12
                     A'                     A'                     A"
 Frequencies --    658.7332               663.0463               705.9854
 Red. masses --      8.0068                 7.0852                 3.4535
 Frc consts  --      2.0471                 1.8352                 1.0141
 IR Inten    --     32.4190                 0.5576                14.8901

                     13                     14                     15
                     A"                     A"                     A'
 Frequencies --    785.4498               838.6565               841.5805
 Red. masses --      6.0208                 1.2487                 6.3884
 Frc consts  --      2.1885                 0.5175                 2.6658
 IR Inten    --     13.5872                 0.0047                 1.9802

                     16                     17                     18
                     A'                     A"                     A"
 Frequencies --    883.9802               884.9768               975.7116
 Red. masses --      8.2987                 1.8723                 1.3111
 Frc consts  --      3.8207                 0.8640                 0.7354
 IR Inten    --     17.8549                38.7860                 0.0019

                     19                     20                     21
                     A"                     A'                     A'
 Frequencies --    988.1372              1032.9371              1102.5799
 Red. masses --      1.3485                 2.7125                 1.2932
 Frc consts  --      0.7758                 1.7052                 0.9262
 IR Inten    --      1.4238                10.7374                14.3334

                     22                     23                     24
                     A'                     A'                     A'
 Frequencies --   1137.9125              1197.1342              1277.6421
 Red. masses --      2.1782                 1.4672                 6.5247
 Frc consts  --      1.6617                 1.2389                 6.2752
 IR Inten    --    145.2408                 5.7983                 0.0008

                     25                     26                     27
                     A'                     A'                     A'
 Frequencies --   1309.4415              1380.1930              1396.0813
 Red. masses --      1.3045                 9.9910                 5.0076
 Frc consts  --      1.3178                11.2134                 5.7505
 IR Inten    --      0.1557               598.8450                 4.1798

                     28                     29                     30
                     A'                     A'                     A'
 Frequencies --   1489.3755              1506.3838              1573.6156
 Red. masses --      3.6866                 3.0384                 9.5619
 Frc consts  --      4.8182                 4.0623                13.9505
 IR Inten    --      1.1219                99.6290                33.4170

                     31                     32                     33
                     A'                     A'                     A'
 Frequencies --   1640.7155              1659.6760              3239.2336
 Red. masses --     12.5896                 6.0123                 1.0897
 Frc consts  --     19.9678                 9.7575                 6.7366
 IR Inten    --    187.3754                89.2064                 4.7558

                     34                     35                     36
                     A'                     A'                     A'
 Frequencies --   3240.3591              3256.7602              3260.1982
 Red. masses --      1.0894                 1.0954                 1.0958
 Frc consts  --      6.7396                 6.8454                 6.8625
 IR Inten    --      2.9628                 3.4268                 1.1157

 - Thermochemistry -
 -------------------
 Temperature   298.150 Kelvin.  Pressure   1.00000 Atm.
 Atom     1 has atomic number  6 and mass  12.00000

 Molecular mass:   140.02219 amu.
 Principal axes and moments of inertia in atomic units:
                           1         2         3
     Eigenvalues --   443.429922139.998002583.42792
           X            0.00021   1.00000   0.00000
           Y            1.00000  -0.00021   0.00000
           Z           -0.00000  -0.00000   1.00000
 This molecule is an asymmetric top.
 Rotational symmetry number  1.
 Warning -- assumption of classical behavior for rotation
           may cause significant error
 Rotational temperatures (Kelvin)      0.19533     0.04047     0.03353
 Rotational constants (GHZ):           4.06996     0.84334     0.69858
 Zero-point vibrational energy     251091.0 (Joules/Mol)
                                   60.01218 (Kcal/Mol)
 Warning -- explicit consideration of   9 degrees of freedom as
           vibrations may cause significant error
 Vibrational temperatures:    111.40   164.12   327.66   418.43   521.41
          (Kelvin)            629.12   682.55   746.92   790.44   947.77
                              953.97  1015.75  1130.09  1206.64  1210.85
                             1271.85  1273.28  1403.83  1421.71  1486.16
                             1586.36  1637.20  1722.41  1838.24  1883.99
                             1985.79  2008.65  2142.88  2167.35  2264.08
                             2360.62  2387.90  4660.53  4662.15  4685.75
                             4690.69

 Zero-point correction=                           0.095635 (Hartree/Particle)
 Thermal correction to Energy=                    0.103105
 Thermal correction to Enthalpy=                  0.104050
 Thermal correction to Gibbs Free Energy=         0.062801
 Sum of electronic and zero-point Energies=           -527.889724
 Sum of electronic and thermal Energies=              -527.882254
 Sum of electronic and thermal Enthalpies=            -527.881310
 Sum of electronic and thermal Free Energies=         -527.922559

                     E (Thermal)             CV                S
                      KCal/Mol        Cal/Mol-Kelvin    Cal/Mol-Kelvin
 Total                   64.700             28.160             86.816
 Electronic               0.000              0.000              0.000
 Translational            0.889              2.981             40.721
 Rotational               0.889              2.981             29.285
 Vibrational             62.922             22.199             16.810
 Vibration     1          0.599              1.964              3.955
 Vibration     2          0.607              1.938              3.198
 Vibration     3          0.651              1.799              1.897
 Vibration     4          0.687              1.691              1.469
 Vibration     5          0.736              1.550              1.112
 Vibration     6          0.798              1.389              0.835
 Vibration     7          0.831              1.307              0.725
 Vibration     8          0.874              1.208              0.612
 Vibration     9          0.905              1.141              0.545

 Optimization completed.
    -- Stationary point found.
 Normal termination of Gaussian 09 at Tue Aug 24 14:55:26 2021.

 -----------------------------------------------------------------
 #P Geom=AllCheck Guess=TCheck SCRF=Check CCSD(T,E4T,FrzG4)/GTBas1
 -----------------------------------------------------------------

 Structure from the checkpoint file:  "/public/home/users/caep010/.cache/gau_scr/Gau-103292.chk"
 --------
 NTPYRO11
 --------
 Charge =  0 Multiplicity = 1

 SCF Done:  E(RHF) =  -524.933008805     A.U. after   15 cycles
 E2 =    -0.1531993906D+01 EUMP2 =    -0.52646500271042D+03
 CCSD(T)
 CCSD(T)= -0.52654296780D+03
 =-526.4707351\CCSD(T)=-526.5429678\RMSD=4.421e-09\PG=CS [SG(C5H4N2O3)]
 Normal termination of Gaussian 09 at Tue Aug 24 15:08:55 2021.

 ---------------------------------------------------------
 #P Geom=AllCheck Guess=TCheck SCRF=Check MP4=FrzG4/GTBas2
 ---------------------------------------------------------

 Structure from the checkpoint file:  "/public/home/users/caep010/.cache/gau_scr/Gau-103292.chk"
 --------
 NTPYRO11
 --------
 Charge =  0 Multiplicity = 1

 SCF Done:  E(RHF) =  -524.949756242     A.U. after   15 cycles
 E2 =    -0.1552324651D+01 EUMP2 =    -0.52650208089292D+03
 Normal termination of Gaussian 09 at Tue Aug 24 15:18:56 2021.

 ---------------------------------------------------------
 #P Geom=AllCheck Guess=TCheck SCRF=Check MP4=FrzG4/GTBas3
 ---------------------------------------------------------

 Structure from the checkpoint file:  "/public/home/users/caep010/.cache/gau_scr/Gau-103292.chk"
 --------
 NTPYRO11
 --------
 Charge =  0 Multiplicity = 1

 SCF Done:  E(RHF) =  -524.985627461     A.U. after   13 cycles
 E2 =    -0.1822280062D+01 EUMP2 =    -0.52680790752335D+03
 Normal termination of Gaussian 09 at Tue Aug 24 16:25:15 2021.

 -----------------------------------------------------------
 #P Geom=AllCheck Guess=TCheck SCRF=Check MP2=Full/GTLargeXP
 -----------------------------------------------------------

 Structure from the checkpoint file:  "/public/home/users/caep010/.cache/gau_scr/Gau-103292.chk"
 --------
 NTPYRO11
 --------
 Charge =  0 Multiplicity = 1

 SCF Done:  E(RHF) =  -525.119190319     A.U. after   14 cycles
 E2 =    -0.2377495547D+01 EUMP2 =    -0.52749668586616D+03
 Normal termination of Gaussian 09 at Tue Aug 24 16:31:02 2021.
 SCF Done:  E(RHF) =  -525.161461080     A.U. after   11 cycles
 Normal termination of Gaussian 09 at Tue Aug 24 16:34:23 2021.

                         Standard orientation:
 ---------------------------------------------------------------------
 Center     Atomic      Atomic             Coordinates (Angstroms)
 Number     Number       Type             X           Y           Z
 ---------------------------------------------------------------------
      1          6           0        1.184217   -1.403927   -0.000000
      2          6           0        1.204006   -0.030460   -0.000000
      3          6           0        0.000000    0.667484   -0.000000
      4          6           0       -1.204167   -0.029804    0.000000
      5          6           0       -1.185040   -1.403418    0.000000
      6          1           0       -2.060831   -2.034775    0.000000
      7          7           0        0.000478    2.125143   -0.000000
      8          8           0       -1.087473    2.690294   -0.000000
      9          8           0        1.088980    2.689233   -0.000000
     10          1           0        2.059751   -2.036269   -0.000000
     11          1           0       -2.143155    0.506486    0.000000
     12          1           0        2.142990    0.505829   -0.000000
     13          7           0       -0.000600   -2.105318    0.000000
     14          8           0       -0.000506   -3.364440    0.000000
 ---------------------------------------------------------------------

 SCF Done:  E(RHF) =  -525.169655004     A.U. after    8 cycles

 The electronic state is 1-A'.
 Alpha  occ. eigenvalues --  -20.61989 -20.61984 -20.55120 -15.87475 -15.77641
 Alpha  occ. eigenvalues --  -11.33876 -11.32431 -11.32428 -11.30996 -11.30991
 Alpha  occ. eigenvalues --   -1.62438  -1.49655  -1.41843  -1.24994  -1.15125
 Alpha  occ. eigenvalues --   -1.10730  -1.01073  -0.94371  -0.87036  -0.80910
 Alpha  occ. eigenvalues --   -0.76964  -0.74143  -0.72988  -0.72718  -0.69682
 Alpha  occ. eigenvalues --   -0.67556  -0.66446  -0.62886  -0.58876  -0.52143
 Alpha  occ. eigenvalues --   -0.51992  -0.51710  -0.47469  -0.46209  -0.41389
 Alpha  occ. eigenvalues --   -0.35514
 Alpha virt. eigenvalues --   -0.00039   0.03204   0.03437   0.04864   0.04916
 Alpha virt. eigenvalues --    0.06000   0.06381   0.06461   0.07298   0.07354
 Alpha virt. eigenvalues --    0.07360   0.08521   0.08915   0.09490   0.09846

 Mulliken charges:
               1
     1  C   -0.140576
     2  C   -0.130632
     3  C    0.211390
     4  C   -0.130598
     5  C   -0.140370
     6  H    0.259465
     7  N    0.498566
     8  O   -0.425434
     9  O   -0.425394
    10  H    0.259537
    11  H    0.274630
    12  H    0.274655
    13  N    0.215215
    14  O   -0.600455
 Sum of Mulliken charges =  -0.00000

 Dipole moment (field-independent basis, Debye):
    X=             -0.0016    Y=             -0.4266    Z=              0.0000  Tot=              0.4266
 Quadrupole moment (field-independent basis, Debye-Ang):
   XX=            -48.6252   YY=            -85.7085   ZZ=            -57.0987
   XY=             -0.0072   XZ=             -0.0000   YZ=             -0.0000

 Normal termination of Gaussian 09 at Tue Aug 24 16:56:03 2021.
