 Gaussian 09, Revision E.01,
 Gaussian 09:  ES64L-G09RevE.01 30-Nov-2015

 -----
 #P G4
 -----

 --------
 NITBAL02
 --------
 Symbolic Z-matrix:
 Charge =  0 Multiplicity = 1

 SCF Done:  E(RB3LYP) =  -605.326882017     A.U. after   15 cycles
 SCF Done:  E(RB3LYP) =  -605.398317770     A.U. after   13 cycles
 SCF Done:  E(RB3LYP) =  -605.418819157     A.U. after   14 cycles
 SCF Done:  E(RB3LYP) =  -605.411044625     A.U. after   15 cycles
 SCF Done:  E(RB3LYP) =  -605.419207634     A.U. after   11 cycles
 SCF Done:  E(RB3LYP) =  -605.419157929     A.U. after   12 cycles
 SCF Done:  E(RB3LYP) =  -605.419649488     A.U. after    9 cycles
 SCF Done:  E(RB3LYP) =  -605.419787474     A.U. after   12 cycles
 SCF Done:  E(RB3LYP) =  -605.419805358     A.U. after   10 cycles
 SCF Done:  E(RB3LYP) =  -605.419811854     A.U. after   10 cycles
 SCF Done:  E(RB3LYP) =  -605.419813319     A.U. after    9 cycles
 SCF Done:  E(RB3LYP) =  -605.419813471     A.U. after    8 cycles
 Optimization completed.
    -- Stationary point found.
 Normal termination of Gaussian 09 at Tue Aug 24 15:02:29 2021.

 ----------------------------------------------------------
 #P Geom=AllCheck Guess=TCheck SCRF=Check B3LYP/GTBas3 Freq
 ----------------------------------------------------------

 Structure from the checkpoint file:  "/public/home/users/caep010/.cache/gau_scr/Gau-66555.chk"
 --------
 NITBAL02
 --------
 Charge =  0 Multiplicity = 1

 SCF Done:  E(RB3LYP) =  -605.419813471     A.U. after    1 cycles

  Exact polarizability: 189.151   5.843 102.892   0.001   0.002  41.853
 Approx polarizability: 294.420  18.560 206.515   0.001  -0.004  69.356

                      1                      2                      3
                      A                      A                      A
 Frequencies --     56.6074                67.4055               120.0348
 Red. masses --      7.7064                 7.0359                 7.0594
 Frc consts  --      0.0145                 0.0188                 0.0599
 IR Inten    --      0.4519                 0.2929                 0.8873

                      4                      5                      6
                      A                      A                      A
 Frequencies --    135.8378               201.0032               253.9836
 Red. masses --      3.2793                 9.7262                 7.1635
 Frc consts  --      0.0357                 0.2315                 0.2723
 IR Inten    --      1.0194                 1.1116                 3.0251

                      7                      8                      9
                      A                      A                      A
 Frequencies --    300.3526               353.6900               421.1087
 Red. masses --     10.8016                 5.3460                 3.0389
 Frc consts  --      0.5741                 0.3940                 0.3175
 IR Inten    --      0.2017                 1.5630                 1.2782

                     10                     11                     12
                      A                      A                      A
 Frequencies --    436.8845               456.4060               497.1024
 Red. masses --      5.3844                 1.1305                 8.3895
 Frc consts  --      0.6055                 0.1388                 1.2215
 IR Inten    --      2.0736               120.0580                18.0882

                     13                     14                     15
                      A                      A                      A
 Frequencies --    528.9369               538.6398               641.0363
 Red. masses --      3.0105                 6.5484                 7.1435
 Frc consts  --      0.4962                 1.1194                 1.7295
 IR Inten    --      1.9561                 1.4567                 0.0339

                     16                     17                     18
                      A                      A                      A
 Frequencies --    702.8119               715.6033               784.5432
 Red. masses --      6.9325                 3.8507                 4.1855
 Frc consts  --      2.0175                 1.1618                 1.5178
 IR Inten    --      4.6003                14.6685                15.8113

                     19                     20                     21
                      A                      A                      A
 Frequencies --    855.0565               859.2527               891.4675
 Red. masses --      6.9688                 1.2787                 1.6845
 Frc consts  --      3.0019                 0.5562                 0.7887
 IR Inten    --     93.5060                 1.0990                18.0164

                     22                     23                     24
                      A                      A                      A
 Frequencies --    894.7174               972.6477               991.0846
 Red. masses --      4.9591                 1.3488                 1.4517
 Frc consts  --      2.3390                 0.7518                 0.8401
 IR Inten    --      0.7228                 1.9632                 9.1707

                     25                     26                     27
                      A                      A                      A
 Frequencies --   1010.1164              1024.8380              1031.9767
 Red. masses --      1.3815                 2.9830                 7.6542
 Frc consts  --      0.8305                 1.8459                 4.8027
 IR Inten    --      0.8059                32.9436               234.2953

                     28                     29                     30
                      A                      A                      A
 Frequencies --   1122.4716              1125.2830              1196.6492
 Red. masses --      2.2242                 1.4681                 1.2650
 Frc consts  --      1.6511                 1.0953                 1.0672
 IR Inten    --     53.7895                 5.2623                 0.9722

                     31                     32                     33
                      A                      A                      A
 Frequencies --   1241.1627              1298.5363              1321.5442
 Red. masses --      2.3005                 1.3943                 1.2801
 Frc consts  --      2.0880                 1.3852                 1.3173
 IR Inten    --     18.3222                84.5829                11.3552

                     34                     35                     36
                      A                      A                      A
 Frequencies --   1362.3853              1390.2755              1432.3661
 Red. masses --      7.9047                14.0161                 3.0532
 Frc consts  --      8.6444                15.9617                 3.6907
 IR Inten    --      9.5446               404.8859                10.1963

                     37                     38                     39
                      A                      A                      A
 Frequencies --   1461.3092              1524.6749              1600.4312
 Red. masses --      1.5235                 2.5533                 9.1349
 Frc consts  --      1.9168                 3.4970                13.7856
 IR Inten    --     25.5619                13.3207                90.7891

                     40                     41                     42
                      A                      A                      A
 Frequencies --   1636.3555              1653.6732              1697.0019
 Red. masses --      5.9442                10.2724                 6.4609
 Frc consts  --      9.3778                16.5509                10.9625
 IR Inten    --     34.3565               126.2544                 7.1955

                     43                     44                     45
                      A                      A                      A
 Frequencies --   3110.0247              3185.3864              3212.8999
 Red. masses --      1.0886                 1.0895                 1.0890
 Frc consts  --      6.2038                 6.5134                 6.6233
 IR Inten    --     16.6413                 6.9225                 0.6354

                     46                     47                     48
                      A                      A                      A
 Frequencies --   3236.3054              3237.4739              3807.8302
 Red. masses --      1.0930                 1.0923                 1.0676
 Frc consts  --      6.7447                 6.7456                 9.1205
 IR Inten    --      0.8906                 1.4316               151.5409

 - Thermochemistry -
 -------------------
 Temperature   298.150 Kelvin.  Pressure   1.00000 Atm.
 Atom     1 has atomic number  8 and mass  15.99491

 Molecular mass:   166.03784 amu.
 Principal axes and moments of inertia in atomic units:
                           1         2         3
     Eigenvalues --   497.672134535.410565033.08261
           X            1.00000   0.00158   0.00000
           Y           -0.00158   1.00000   0.00002
           Z           -0.00000  -0.00002   1.00000
 This molecule is an asymmetric top.
 Rotational symmetry number  1.
 Warning -- assumption of classical behavior for rotation
           may cause significant error
 Rotational temperatures (Kelvin)      0.17404     0.01910     0.01721
 Rotational constants (GHZ):           3.62637     0.39792     0.35858
 Zero-point vibrational energy     338526.3 (Joules/Mol)
                                   80.90974 (Kcal/Mol)
 Warning -- explicit consideration of  14 degrees of freedom as
           vibrations may cause significant error
 Vibrational temperatures:     81.45    96.98   172.70   195.44   289.20
          (Kelvin)            365.43   432.14   508.88   605.88   628.58
                              656.67   715.22   761.02   774.98   922.31
                             1011.19  1029.59  1128.78  1230.23  1236.27
                             1282.62  1287.30  1399.42  1425.95  1453.33
                             1474.51  1484.78  1614.98  1619.03  1721.71
                             1785.75  1868.30  1901.40  1960.17  2000.29
                             2060.85  2102.50  2193.66  2302.66  2354.35
                             2379.26  2441.60  4474.63  4583.05  4622.64
                             4656.32  4658.00  5478.61

 Zero-point correction=                           0.128938 (Hartree/Particle)
 Thermal correction to Energy=                    0.139023
 Thermal correction to Enthalpy=                  0.139967
 Thermal correction to Gibbs Free Energy=         0.092390
 Sum of electronic and zero-point Energies=           -605.290876
 Sum of electronic and thermal Energies=              -605.280791
 Sum of electronic and thermal Enthalpies=            -605.279847
 Sum of electronic and thermal Free Energies=         -605.327424

                     E (Thermal)             CV                S
                      KCal/Mol        Cal/Mol-Kelvin    Cal/Mol-Kelvin
 Total                   87.238             37.455            100.134
 Electronic               0.000              0.000              0.000
 Translational            0.889              2.981             41.229
 Rotational               0.889              2.981             30.808
 Vibrational             85.461             31.493             28.096
 Vibration     1          0.596              1.975              4.572
 Vibration     2          0.598              1.970              4.228
 Vibration     3          0.609              1.933              3.100
 Vibration     4          0.614              1.918              2.862
 Vibration     5          0.638              1.838              2.124
 Vibration     6          0.665              1.756              1.703
 Vibration     7          0.693              1.673              1.415
 Vibration     8          0.730              1.568              1.150
 Vibration     9          0.784              1.424              0.888
 Vibration    10          0.797              1.390              0.836
 Vibration    11          0.815              1.347              0.777
 Vibration    12          0.853              1.256              0.665
 Vibration    13          0.884              1.186              0.590
 Vibration    14          0.894              1.165              0.568

 Optimization completed.
    -- Stationary point found.
 Normal termination of Gaussian 09 at Tue Aug 24 15:04:36 2021.

 -----------------------------------------------------------------
 #P Geom=AllCheck Guess=TCheck SCRF=Check CCSD(T,E4T,FrzG4)/GTBas1
 -----------------------------------------------------------------

 Structure from the checkpoint file:  "/public/home/users/caep010/.cache/gau_scr/Gau-66555.chk"
 --------
 NITBAL02
 --------
 Charge =  0 Multiplicity = 1

 SCF Done:  E(RHF) =  -601.862992208     A.U. after   15 cycles
 E2 =    -0.1767599464D+01 EUMP2 =    -0.60363059167171D+03
 CCSD(T)
 CCSD(T)= -0.60373939602D+03
 DTQ=-603.7539748\MP4SDQ=-603.6630806\CCSD=-603.6595834\CCSD(T)=-603.73
 Normal termination of Gaussian 09 at Tue Aug 24 16:02:59 2021.

 ---------------------------------------------------------
 #P Geom=AllCheck Guess=TCheck SCRF=Check MP4=FrzG4/GTBas2
 ---------------------------------------------------------

 Structure from the checkpoint file:  "/public/home/users/caep010/.cache/gau_scr/Gau-66555.chk"
 --------
 NITBAL02
 --------
 Charge =  0 Multiplicity = 1

 SCF Done:  E(RHF) =  -601.881218118     A.U. after   16 cycles
 E2 =    -0.1790982149D+01 EUMP2 =    -0.60367220026723D+03
 Normal termination of Gaussian 09 at Tue Aug 24 16:23:07 2021.

 ---------------------------------------------------------
 #P Geom=AllCheck Guess=TCheck SCRF=Check MP4=FrzG4/GTBas3
 ---------------------------------------------------------

 Structure from the checkpoint file:  "/public/home/users/caep010/.cache/gau_scr/Gau-66555.chk"
 --------
 NITBAL02
 --------
 Charge =  0 Multiplicity = 1

 SCF Done:  E(RHF) =  -601.924558605     A.U. after   12 cycles
 E2 =    -0.2107615846D+01 EUMP2 =    -0.60403217445073D+03
 Normal termination of Gaussian 09 at Tue Aug 24 19:02:22 2021.

 -----------------------------------------------------------
 #P Geom=AllCheck Guess=TCheck SCRF=Check MP2=Full/GTLargeXP
 -----------------------------------------------------------

 Structure from the checkpoint file:  "/public/home/users/caep010/.cache/gau_scr/Gau-66555.chk"
 --------
 NITBAL02
 --------
 Charge =  0 Multiplicity = 1

 SCF Done:  E(RHF) =  -602.073892610     A.U. after   15 cycles
 E2 =    -0.2765181070D+01 EUMP2 =    -0.60483907368022D+03
 Normal termination of Gaussian 09 at Tue Aug 24 19:18:48 2021.
 SCF Done:  E(RHF) =  -602.122757719     A.U. after    9 cycles
 Normal termination of Gaussian 09 at Tue Aug 24 19:23:42 2021.

                         Standard orientation:
 ---------------------------------------------------------------------
 Center     Atomic      Atomic             Coordinates (Angstroms)
 Number     Number       Type             X           Y           Z
 ---------------------------------------------------------------------
      1          8           0       -4.768835   -0.121185   -0.000013
      2          1           0       -5.252235   -0.955427   -0.000553
      3          7           0       -3.444935   -0.528742   -0.000289
      4          6           0       -2.646994    0.470518    0.000056
      5          6           0       -1.197201    0.281433    0.000124
      6          6           0       -0.612164   -0.996735    0.000004
      7          1           0       -3.038075    1.489919    0.000438
      8          6           0       -0.366888    1.411244    0.000243
      9          6           0        1.014960    1.280161    0.000172
     10          6           0        1.561618    0.003126    0.000060
     11          7           0        3.025056   -0.146080   -0.000052
     12          8           0        3.479050   -1.283638    0.000355
     13          1           0       -0.810935    2.401310    0.000347
     14          6           0        0.764334   -1.139898   -0.000008
     15          8           0        3.699887    0.876264   -0.000586
     16          1           0        1.671688    2.139217    0.000301
     17          1           0        1.236243   -2.113140   -0.000011
     18          1           0       -1.254338   -1.868739   -0.000086
 ---------------------------------------------------------------------

 SCF Done:  E(RHF) =  -602.132078373     A.U. after    7 cycles

 The electronic state is 1-A.
 Alpha  occ. eigenvalues --  -20.61943 -20.60306 -20.60266 -15.85608 -15.64948
 Alpha  occ. eigenvalues --  -11.31553 -11.30096 -11.28884 -11.28027 -11.27800
 Alpha  occ. eigenvalues --  -11.27341 -11.26823  -1.60754  -1.45351  -1.40151
 Alpha  occ. eigenvalues --   -1.21651  -1.18053  -1.09600  -1.05899  -0.97911
 Alpha  occ. eigenvalues --   -0.87968  -0.86168  -0.80408  -0.78552  -0.75046
 Alpha  occ. eigenvalues --   -0.73023  -0.72281  -0.69724  -0.67226  -0.65341
 Alpha  occ. eigenvalues --   -0.63792  -0.62884  -0.62159  -0.56825  -0.55001
 Alpha  occ. eigenvalues --   -0.53479  -0.50006  -0.49849  -0.46995  -0.45864
 Alpha  occ. eigenvalues --   -0.45147  -0.37619  -0.35452
 Alpha virt. eigenvalues --    0.01778   0.03137   0.03724   0.04272   0.04928
 Alpha virt. eigenvalues --    0.05412   0.06046   0.07132   0.07478   0.07874
 Alpha virt. eigenvalues --    0.08115   0.08157   0.08217   0.09439   0.09440

 Mulliken charges:
               1
     1  O   -0.488649
     2  H    0.407637
     3  N   -0.208092
     4  C   -0.066954
     5  C    0.319713
     6  C   -0.251394
     7  H    0.203430
     8  C   -0.267772
     9  C   -0.178931
    10  C    0.089494
    11  N    0.521115
    12  O   -0.433444
    13  H    0.205693
    14  C   -0.194966
    15  O   -0.432376
    16  H    0.266455
    17  H    0.266754
    18  H    0.242287
 Sum of Mulliken charges =  -0.00000

 Dipole moment (field-independent basis, Debye):
    X=             -4.6579    Y=              0.5935    Z=              0.0001  Tot=              4.6956
 Quadrupole moment (field-independent basis, Debye-Ang):
   XX=            -84.5101   YY=            -62.3208   ZZ=            -70.7695
   XY=              4.6606   XZ=              0.0048   YZ=              0.0041

 Normal termination of Gaussian 09 at Tue Aug 24 19:56:18 2021.
