 Gaussian 09, Revision E.01,
 Gaussian 09:  ES64L-G09RevE.01 30-Nov-2015

 ----------------
 #P G4 OPT=calcfc
 ----------------

 --------
 NANILI29
 --------
 Symbolic Z-matrix:
 Charge =  0 Multiplicity = 1

 SCF Done:  E(RB3LYP) =  -492.047384282     A.U. after   15 cycles
 SCF Done:  E(RB3LYP) =  -492.124199281     A.U. after   14 cycles
 SCF Done:  E(RB3LYP) =  -492.146512869     A.U. after   14 cycles
 SCF Done:  E(RB3LYP) =  -492.147378310     A.U. after   12 cycles
 SCF Done:  E(RB3LYP) =  -492.147431604     A.U. after   11 cycles
 SCF Done:  E(RB3LYP) =  -492.147500156     A.U. after   12 cycles
 SCF Done:  E(RB3LYP) =  -492.056778703     A.U. after   15 cycles
 SCF Done:  E(RB3LYP) =  -492.147502771     A.U. after    8 cycles
 SCF Done:  E(RB3LYP) =  -492.147608757     A.U. after   13 cycles
 SCF Done:  E(RB3LYP) =  -492.146496477     A.U. after   13 cycles
 SCF Done:  E(RB3LYP) =  -492.147966973     A.U. after   10 cycles
 SCF Done:  E(RB3LYP) =  -492.147975350     A.U. after   10 cycles
 SCF Done:  E(RB3LYP) =  -492.147976126     A.U. after    9 cycles
 Optimization completed.
    -- Stationary point found.
 Normal termination of Gaussian 09 at Thu Aug 26 11:10:53 2021.

 ----------------------------------------------------------
 #P Geom=AllCheck Guess=TCheck SCRF=Check B3LYP/GTBas3 Freq
 ----------------------------------------------------------

 Structure from the checkpoint file:  "/public/home/users/caep010/.cache/gau_scr/Gau-10827.chk"
 --------
 NANILI29
 --------
 Charge =  0 Multiplicity = 1

 SCF Done:  E(RB3LYP) =  -492.147976126     A.U. after    1 cycles

  Exact polarizability: 141.167   0.000  91.512   0.212  -0.001  36.379
 Approx polarizability: 236.311   0.001 178.186  -1.424   0.015  59.559

                      1                      2                      3
                      A                      A                      A
 Frequencies --     75.6056               112.9386               227.0852
 Red. masses --      7.7204                 5.7525                 6.4376
 Frc consts  --      0.0260                 0.0432                 0.1956
 IR Inten    --      0.0936                 0.3708                 0.3601

                      4                      5                      6
                      A                      A                      A
 Frequencies --    295.1898               364.0870               372.8201
 Red. masses --      5.1612                 9.6508                 1.1205
 Frc consts  --      0.2650                 0.7537                 0.0918
 IR Inten    --      8.2853                 2.0106                11.7387

                      7                      8                      9
                      A                      A                      A
 Frequencies --    395.1961               425.0774               451.2939
 Red. masses --      2.6149                 3.2573                 1.2852
 Frc consts  --      0.2406                 0.3468                 0.1542
 IR Inten    --      0.8299                 0.0132               390.3058

                     10                     11                     12
                      A                      A                      A
 Frequencies --    517.0965               539.1024               643.1698
 Red. masses --      2.7464                 6.8407                 6.3887
 Frc consts  --      0.4327                 1.1714                 1.5571
 IR Inten    --     21.6587                 2.2234                 5.9961

                     13                     14                     15
                      A                      A                      A
 Frequencies --    645.6124               713.7224               783.9505
 Red. masses --      6.8839                 3.4569                 5.4556
 Frc consts  --      1.6906                 1.0375                 1.9755
 IR Inten    --      0.7412                 8.0657                24.1491

                     16                     17                     18
                      A                      A                      A
 Frequencies --    824.8717               830.2390               863.8314
 Red. masses --      5.5102                 1.2550                 1.9374
 Frc consts  --      2.2090                 0.5097                 0.8518
 IR Inten    --      4.1681                 0.0876                30.8783

                     19                     20                     21
                      A                      A                      A
 Frequencies --    876.4071               961.4098               991.2254
 Red. masses --      8.5533                 1.2998                 1.3599
 Frc consts  --      3.8707                 0.7078                 0.7872
 IR Inten    --     23.8944                 0.0014                 1.3143

                     22                     23                     24
                      A                      A                      A
 Frequencies --   1018.4877              1068.8138              1132.9209
 Red. masses --      2.7977                 1.4095                 2.4351
 Frc consts  --      1.7099                 0.9487                 1.8415
 IR Inten    --      0.2378                 2.8128                96.3244

                     25                     26                     27
                      A                      A                      A
 Frequencies --   1145.2437              1205.0565              1326.1979
 Red. masses --      1.1527                 1.3691                 1.3430
 Frc consts  --      0.8908                 1.1714                 1.3917
 IR Inten    --     10.7881                12.5818                 0.1412

                     28                     29                     30
                      A                      A                      A
 Frequencies --   1335.5937              1380.4009              1386.3530
 Red. masses --      3.1244                 7.1170                11.8192
 Frc consts  --      3.2837                 7.9902                13.3840
 IR Inten    --    159.0033                 0.0629               458.6930

                     31                     32                     33
                      A                      A                      A
 Frequencies --   1475.1265              1534.8632              1595.5056
 Red. masses --      3.2998                 2.7083                 9.5342
 Frc consts  --      4.2305                 3.7592                14.2998
 IR Inten    --      0.0704                47.1053                98.0717

                     34                     35                     36
                      A                      A                      A
 Frequencies --   1642.2395              1646.4176              1663.3443
 Red. masses --      2.8184                 9.2697                 1.5044
 Frc consts  --      4.4784                14.8046                 2.4523
 IR Inten    --     63.4096               123.5474               225.0558

                     37                     38                     39
                      A                      A                      A
 Frequencies --   3176.3698              3177.3954              3233.2377
 Red. masses --      1.0894                 1.0893                 1.0919
 Frc consts  --      6.4758                 6.4797                 6.7253
 IR Inten    --     10.8763                11.6671                 1.2648

                     40                     41                     42
                      A                      A                      A
 Frequencies --   3234.6729              3591.1165              3698.4648
 Red. masses --      1.0919                 1.0465                 1.1003
 Frc consts  --      6.7313                 7.9515                 8.8679
 IR Inten    --      1.3820                60.9912                23.3279

 - Thermochemistry -
 -------------------
 Temperature   298.150 Kelvin.  Pressure   1.00000 Atm.
 Atom     1 has atomic number  8 and mass  15.99491

 Molecular mass:   138.04293 amu.
 Principal axes and moments of inertia in atomic units:
                           1         2         3
     Eigenvalues --   458.346372190.874342648.20971
           X            1.00000  -0.00000   0.00286
           Y            0.00000   1.00000  -0.00004
           Z           -0.00286   0.00004   1.00000
 This molecule is an asymmetric top.
 Rotational symmetry number  1.
 Warning -- assumption of classical behavior for rotation
           may cause significant error
 Rotational temperatures (Kelvin)      0.18897     0.03953     0.03271
 Rotational constants (GHZ):           3.93751     0.82375     0.68149
 Zero-point vibrational energy     314484.8 (Joules/Mol)
                                   75.16367 (Kcal/Mol)
 Warning -- explicit consideration of  11 degrees of freedom as
           vibrations may cause significant error
 Vibrational temperatures:    108.78   162.49   326.72   424.71   523.84
          (Kelvin)            536.40   568.60   611.59   649.31   743.99
                              775.65   925.38   928.89  1026.89  1127.93
                             1186.80  1194.53  1242.86  1260.95  1383.25
                             1426.15  1465.37  1537.78  1630.02  1647.75
                             1733.81  1908.10  1921.62  1986.09  1994.65
                             2122.38  2208.32  2295.57  2362.81  2368.82
                             2393.18  4570.08  4571.56  4651.90  4653.97
                             5166.81  5321.26

 Zero-point correction=                           0.119781 (Hartree/Particle)
 Thermal correction to Energy=                    0.127992
 Thermal correction to Enthalpy=                  0.128936
 Thermal correction to Gibbs Free Energy=         0.086546
 Sum of electronic and zero-point Energies=           -492.028195
 Sum of electronic and thermal Energies=              -492.019984
 Sum of electronic and thermal Enthalpies=            -492.019040
 Sum of electronic and thermal Free Energies=         -492.061430

                     E (Thermal)             CV                S
                      KCal/Mol        Cal/Mol-Kelvin    Cal/Mol-Kelvin
 Total                   80.316             31.705             89.217
 Electronic               0.000              0.000              0.000
 Translational            0.889              2.981             40.679
 Rotational               0.889              2.981             29.365
 Vibrational             78.539             25.743             19.172
 Vibration     1          0.599              1.965              4.002
 Vibration     2          0.607              1.939              3.218
 Vibration     3          0.651              1.800              1.902
 Vibration     4          0.689              1.683              1.444
 Vibration     5          0.738              1.546              1.105
 Vibration     6          0.744              1.528              1.068
 Vibration     7          0.762              1.480              0.980
 Vibration     8          0.787              1.416              0.875
 Vibration     9          0.810              1.358              0.792
 Vibration    10          0.872              1.212              0.617
 Vibration    11          0.894              1.164              0.567

 Optimization completed.
    -- Stationary point found.
 Normal termination of Gaussian 09 at Thu Aug 26 11:12:16 2021.

 -----------------------------------------------------------------
 #P Geom=AllCheck Guess=TCheck SCRF=Check CCSD(T,E4T,FrzG4)/GTBas1
 -----------------------------------------------------------------

 Structure from the checkpoint file:  "/public/home/users/caep010/.cache/gau_scr/Gau-10827.chk"
 --------
 NANILI29
 --------
 Charge =  0 Multiplicity = 1

 SCF Done:  E(RHF) =  -489.203154263     A.U. after   14 cycles
 E2 =    -0.1458885200D+01 EUMP2 =    -0.49066203946233D+03
 CCSD(T)
 CCSD(T)= -0.49075377752D+03
 SDQ=-490.6909276\CCSD=-490.6881238\CCSD(T)=-490.7537775\RMSD=6.676e-09
 Normal termination of Gaussian 09 at Thu Aug 26 11:28:15 2021.

 ---------------------------------------------------------
 #P Geom=AllCheck Guess=TCheck SCRF=Check MP4=FrzG4/GTBas2
 ---------------------------------------------------------

 Structure from the checkpoint file:  "/public/home/users/caep010/.cache/gau_scr/Gau-10827.chk"
 --------
 NANILI29
 --------
 Charge =  0 Multiplicity = 1

 SCF Done:  E(RHF) =  -489.218493456     A.U. after   14 cycles
 E2 =    -0.1477922920D+01 EUMP2 =    -0.49069641637615D+03
 Normal termination of Gaussian 09 at Thu Aug 26 11:35:22 2021.

 ---------------------------------------------------------
 #P Geom=AllCheck Guess=TCheck SCRF=Check MP4=FrzG4/GTBas3
 ---------------------------------------------------------

 Structure from the checkpoint file:  "/public/home/users/caep010/.cache/gau_scr/Gau-10827.chk"
 --------
 NANILI29
 --------
 Charge =  0 Multiplicity = 1

 SCF Done:  E(RHF) =  -489.256168647     A.U. after   12 cycles
 E2 =    -0.1743110793D+01 EUMP2 =    -0.49099927943937D+03
 Normal termination of Gaussian 09 at Thu Aug 26 12:23:16 2021.

 -----------------------------------------------------------
 #P Geom=AllCheck Guess=TCheck SCRF=Check MP2=Full/GTLargeXP
 -----------------------------------------------------------

 Structure from the checkpoint file:  "/public/home/users/caep010/.cache/gau_scr/Gau-10827.chk"
 --------
 NANILI29
 --------
 Charge =  0 Multiplicity = 1

 SCF Done:  E(RHF) =  -489.376603334     A.U. after   13 cycles
 E2 =    -0.2287810486D+01 EUMP2 =    -0.49166441381961D+03
 Normal termination of Gaussian 09 at Thu Aug 26 12:32:05 2021.
 SCF Done:  E(RHF) =  -489.416110771     A.U. after    9 cycles
 Normal termination of Gaussian 09 at Thu Aug 26 12:35:16 2021.

                         Standard orientation:
 ---------------------------------------------------------------------
 Center     Atomic      Atomic             Coordinates (Angstroms)
 Number     Number       Type             X           Y           Z
 ---------------------------------------------------------------------
      1          8           0        2.738565   -1.085885   -0.005413
      2          7           0        2.165301    0.000025   -0.002595
      3          8           0        2.738555    1.085945   -0.003740
      4          6           0        0.708049    0.000001    0.002203
      5          6           0        0.021374    1.212568    0.002659
      6          6           0       -1.361069    1.211527    0.003636
      7          6           0       -2.078331   -0.000054    0.005335
      8          7           0       -3.455144    0.000010    0.056688
      9          6           0       -1.361014   -1.211589    0.004403
     10          6           0        0.021438   -1.212581    0.003253
     11          1           0        0.585217   -2.135861    0.000569
     12          1           0       -1.902662    2.152286    0.005972
     13          1           0       -1.902524   -2.152323    0.007529
     14          1           0        0.585019    2.135741   -0.000676
     15          1           0       -3.927804   -0.844163   -0.224717
     16          1           0       -3.927987    0.844364   -0.223033
 ---------------------------------------------------------------------

 SCF Done:  E(RHF) =  -489.423678102     A.U. after    8 cycles

 The electronic state is 1-A.
 Alpha  occ. eigenvalues --  -20.58592 -20.58587 -15.84123 -15.59621 -11.32021
 Alpha  occ. eigenvalues --  -11.28890 -11.27357 -11.27351 -11.25209 -11.25207
 Alpha  occ. eigenvalues --   -1.59001  -1.38337  -1.26172  -1.17803  -1.06713
 Alpha  occ. eigenvalues --   -1.04939  -0.94077  -0.87086  -0.82255  -0.77192
 Alpha  occ. eigenvalues --   -0.73441  -0.72718  -0.70750  -0.70546  -0.64465
 Alpha  occ. eigenvalues --   -0.62874  -0.61840  -0.59228  -0.56438  -0.52303
 Alpha  occ. eigenvalues --   -0.48675  -0.48254  -0.48233  -0.44534  -0.37140
 Alpha  occ. eigenvalues --   -0.32901
 Alpha virt. eigenvalues --    0.02353   0.03518   0.04373   0.04541   0.05957
 Alpha virt. eigenvalues --    0.06444   0.06499   0.07602   0.08290   0.08335
 Alpha virt. eigenvalues --    0.08779   0.09047   0.09390   0.09993   0.10161

 Mulliken charges:
               1
     1  O   -0.449430
     2  N    0.517041
     3  O   -0.449431
     4  C    0.122516
     5  C   -0.186445
     6  C   -0.230702
     7  C    0.281846
     8  N   -0.710125
     9  C   -0.230478
    10  C   -0.186474
    11  H    0.258196
    12  H    0.184581
    13  H    0.184649
    14  H    0.258183
    15  H    0.318017
    16  H    0.318058
 Sum of Mulliken charges =  -0.00000

 Dipole moment (field-independent basis, Debye):
    X=             -7.1810    Y=              0.0004    Z=             -0.8055  Tot=              7.2260
 Quadrupole moment (field-independent basis, Debye-Ang):
   XX=            -60.2353   YY=            -52.7844   ZZ=            -60.8729
   XY=             -0.0035   XZ=              3.6496   YZ=             -0.0043

 Normal termination of Gaussian 09 at Thu Aug 26 12:59:31 2021.
