 Gaussian 09, Revision E.01,
 Gaussian 09:  ES64L-G09RevE.01 30-Nov-2015

 ----------------
 #P G4 OPT=calcfc
 ----------------

 ------
 NAGGOU
 ------
 Symbolic Z-matrix:
 Charge =  0 Multiplicity = 1

 SCF Done:  E(RB3LYP) =  -693.743351802     A.U. after   15 cycles
 SCF Done:  E(RB3LYP) =  -693.821978560     A.U. after   13 cycles
 SCF Done:  E(RB3LYP) =  -693.847853528     A.U. after   14 cycles
 SCF Done:  E(RB3LYP) =  -693.848257741     A.U. after   15 cycles
 SCF Done:  E(RB3LYP) =  -693.848334032     A.U. after   13 cycles
 SCF Done:  E(RB3LYP) =  -693.807005769     A.U. after   16 cycles
 SCF Done:  E(RB3LYP) =  -693.848334498     A.U. after    8 cycles
 SCF Done:  E(RB3LYP) =  -693.848379126     A.U. after   13 cycles
 SCF Done:  E(RB3LYP) =  -693.848413576     A.U. after   10 cycles
 SCF Done:  E(RB3LYP) =  -693.848412484     A.U. after   13 cycles
 SCF Done:  E(RB3LYP) =  -693.848431253     A.U. after   13 cycles
 SCF Done:  E(RB3LYP) =  -693.848431605     A.U. after    9 cycles
 SCF Done:  E(RB3LYP) =  -693.848431599     A.U. after    8 cycles
 Optimization completed.
    -- Stationary point found.
 Normal termination of Gaussian 09 at Thu Aug 26 00:05:43 2021.

 ----------------------------------------------------------
 #P Geom=AllCheck Guess=TCheck SCRF=Check B3LYP/GTBas3 Freq
 ----------------------------------------------------------

 Structure from the checkpoint file:  "/public/home/users/caep010/.cache/gau_scr/Gau-204453.chk"
 ------
 NAGGOU
 ------
 Charge =  0 Multiplicity = 1

 SCF Done:  E(RB3LYP) =  -693.848431599     A.U. after    1 cycles

  Exact polarizability: 186.859   0.620 113.202   0.285  -0.293  49.416
 Approx polarizability: 283.445  -0.566 234.130   0.220  -1.209  84.926

                      1                      2                      3
                      A                      A                      A
 Frequencies --     40.0367                63.2525                67.7668
 Red. masses --      6.4026                 9.9755                 6.8734
 Frc consts  --      0.0060                 0.0235                 0.0186
 IR Inten    --      3.7214                 6.4512                 1.0422

                      4                      5                      6
                      A                      A                      A
 Frequencies --    123.2897               178.0024               254.9756
 Red. masses --      9.2780                 9.0430                 7.6168
 Frc consts  --      0.0831                 0.1688                 0.2918
 IR Inten    --      7.3389                 0.3961                 1.2233

                      7                      8                      9
                      A                      A                      A
 Frequencies --    274.4511               338.8263               421.1797
 Red. masses --     12.1277                 6.7254                 3.1324
 Frc consts  --      0.5382                 0.4549                 0.3274
 IR Inten    --      0.0624                 2.0798                 0.1164

                     10                     11                     12
                      A                      A                      A
 Frequencies --    444.4668               511.3893               523.2032
 Red. masses --      6.3697                 7.6715                 3.3544
 Frc consts  --      0.7414                 1.1820                 0.5410
 IR Inten    --      1.1831                10.0226                 6.1412

                     13                     14                     15
                      A                      A                      A
 Frequencies --    540.6088               636.7090               675.6655
 Red. masses --      5.9827                 7.0712                 4.0639
 Frc consts  --      1.0302                 1.6890                 1.0931
 IR Inten    --      1.8174                 0.5153                 2.2096

                     16                     17                     18
                      A                      A                      A
 Frequencies --    708.3872               727.5479               737.1003
 Red. masses --      3.7787                12.2854                 7.6471
 Frc consts  --      1.1172                 3.8314                 2.4479
 IR Inten    --     12.6575                 3.8857                 1.2370

                     19                     20                     21
                      A                      A                      A
 Frequencies --    783.9131               848.5869               865.3188
 Red. masses --      4.5571                 1.2848                 1.4785
 Frc consts  --      1.6500                 0.5451                 0.6523
 IR Inten    --     19.3311                 0.5246                12.4293

                     22                     23                     24
                      A                      A                      A
 Frequencies --    868.8122               894.5175               975.3242
 Red. masses --      7.3943                 1.7667                 1.4721
 Frc consts  --      3.2885                 0.8329                 0.8250
 IR Inten    --     62.4655                27.2611                 1.0605

                     25                     26                     27
                      A                      A                      A
 Frequencies --    977.8817              1004.0605              1012.2478
 Red. masses --      4.2748                 1.3846                 8.2553
 Frc consts  --      2.4085                 0.8224                 4.9838
 IR Inten    --      4.5138                 1.6594                68.8170

                     28                     29                     30
                      A                      A                      A
 Frequencies --   1024.5591              1047.9082              1105.8809
 Red. masses --      3.4228                 3.7258                 7.9998
 Frc consts  --      2.1169                 2.4105                 5.7643
 IR Inten    --      7.9937                36.4001                38.0422

                     31                     32                     33
                      A                      A                      A
 Frequencies --   1125.0853              1127.3021              1191.6113
 Red. masses --      1.5005                 2.1775                 1.6512
 Frc consts  --      1.1191                 1.6304                 1.3814
 IR Inten    --     12.4083                41.8650                 5.9555

                     34                     35                     36
                      A                      A                      A
 Frequencies --   1205.6436              1238.4423              1315.3108
 Red. masses --      1.6525                 2.8345                 1.5182
 Frc consts  --      1.4152                 2.5614                 1.5475
 IR Inten    --      9.3868                45.8323                10.4894

                     37                     38                     39
                      A                      A                      A
 Frequencies --   1348.5382              1366.2948              1393.1492
 Red. masses --      4.7756                 8.8610                13.9729
 Frc consts  --      5.1169                 9.7459                15.9784
 IR Inten    --     10.2262                 4.9314               371.5301

                     40                     41                     42
                      A                      A                      A
 Frequencies --   1424.6391              1467.9998              1501.9111
 Red. masses --      4.4248                 4.1052                 4.4571
 Frc consts  --      5.2912                 5.2124                 5.9236
 IR Inten    --      6.9688                 3.0370                22.6343

                     43                     44                     45
                      A                      A                      A
 Frequencies --   1536.8626              1616.5010              1637.9281
 Red. masses --      3.2186                10.4265                 6.0823
 Frc consts  --      4.4790                16.0524                 9.6140
 IR Inten    --    124.4815                90.4313                67.2398

                     46                     47                     48
                      A                      A                      A
 Frequencies --   1664.3178              3208.5232              3231.0798
 Red. masses --     10.2159                 1.0899                 1.0889
 Frc consts  --     16.6724                 6.6108                 6.6977
 IR Inten    --    122.8780                 2.8718                 0.8844

                     49                     50                     51
                      A                      A                      A
 Frequencies --   3241.6731              3242.9720              3297.3939
 Red. masses --      1.0926                 1.0947                 1.0994
 Frc consts  --      6.7646                 6.7831                 7.0430
 IR Inten    --      3.7046                 3.8544                 2.0849

 - Thermochemistry -
 -------------------
 Temperature   298.150 Kelvin.  Pressure   1.00000 Atm.
 Atom     1 has atomic number  6 and mass  12.00000

 Molecular mass:   191.04432 amu.
 Principal axes and moments of inertia in atomic units:
                           1         2         3
     Eigenvalues --   627.430075696.150596290.18490
           X            0.99999   0.00376   0.00102
           Y           -0.00375   0.99999  -0.00376
           Z           -0.00103   0.00376   0.99999
 This molecule is an asymmetric top.
 Rotational symmetry number  1.
 Warning -- assumption of classical behavior for rotation
           may cause significant error
 Rotational temperatures (Kelvin)      0.13805     0.01521     0.01377
 Rotational constants (GHZ):           2.87640     0.31684     0.28691
 Zero-point vibrational energy     341288.9 (Joules/Mol)
                                   81.57000 (Kcal/Mol)
 Warning -- explicit consideration of  13 degrees of freedom as
           vibrations may cause significant error
 Vibrational temperatures:     57.60    91.01    97.50   177.39   256.11
          (Kelvin)            366.85   394.87   487.49   605.98   639.49
                              735.77   752.77   777.81   916.08   972.13
                             1019.21  1046.78  1060.52  1127.87  1220.93
                             1245.00  1250.03  1287.01  1403.27  1406.95
                             1444.62  1456.40  1474.11  1507.70  1591.11
                             1618.74  1621.93  1714.46  1734.65  1781.84
                             1892.44  1940.24  1965.79  2004.43  2049.74
                             2112.12  2160.91  2211.20  2325.78  2356.61
                             2394.58  4616.34  4648.80  4664.04  4665.91
                             4744.21

 Zero-point correction=                           0.129990 (Hartree/Particle)
 Thermal correction to Energy=                    0.140353
 Thermal correction to Enthalpy=                  0.141298
 Thermal correction to Gibbs Free Energy=         0.092002
 Sum of electronic and zero-point Energies=           -693.718442
 Sum of electronic and thermal Energies=              -693.708078
 Sum of electronic and thermal Enthalpies=            -693.707134
 Sum of electronic and thermal Free Energies=         -693.756430

                     E (Thermal)             CV                S
                      KCal/Mol        Cal/Mol-Kelvin    Cal/Mol-Kelvin
 Total                   88.073             38.731            103.752
 Electronic               0.000              0.000              0.000
 Translational            0.889              2.981             41.648
 Rotational               0.889              2.981             31.486
 Vibrational             86.296             32.769             30.618
 Vibration     1          0.594              1.981              5.257
 Vibration     2          0.597              1.972              4.353
 Vibration     3          0.598              1.970              4.217
 Vibration     4          0.610              1.930              3.048
 Vibration     5          0.628              1.869              2.349
 Vibration     6          0.665              1.754              1.696
 Vibration     7          0.677              1.721              1.568
 Vibration     8          0.719              1.598              1.218
 Vibration     9          0.784              1.424              0.888
 Vibration    10          0.804              1.373              0.813
 Vibration    11          0.866              1.225              0.630
 Vibration    12          0.878              1.199              0.603
 Vibration    13          0.896              1.160              0.564

 Optimization completed.
    -- Stationary point found.
 Normal termination of Gaussian 09 at Thu Aug 26 00:08:51 2021.

 -----------------------------------------------------------------
 #P Geom=AllCheck Guess=TCheck SCRF=Check CCSD(T,E4T,FrzG4)/GTBas1
 -----------------------------------------------------------------

 Structure from the checkpoint file:  "/public/home/users/caep010/.cache/gau_scr/Gau-204453.chk"
 ------
 NAGGOU
 ------
 Charge =  0 Multiplicity = 1

 SCF Done:  E(RHF) =  -689.760985388     A.U. after   15 cycles
 E2 =    -0.2082996387D+01 EUMP2 =    -0.69184398177519D+03
 CCSD(T)
 CCSD(T)= -0.69195797550D+03
 MP4SDQ=-691.8627901\CCSD=-691.8578059\CCSD(T)=-691.9579755\RMSD=5.978e
 Normal termination of Gaussian 09 at Thu Aug 26 02:00:33 2021.

 ---------------------------------------------------------
 #P Geom=AllCheck Guess=TCheck SCRF=Check MP4=FrzG4/GTBas2
 ---------------------------------------------------------

 Structure from the checkpoint file:  "/public/home/users/caep010/.cache/gau_scr/Gau-204453.chk"
 ------
 NAGGOU
 ------
 Charge =  0 Multiplicity = 1

 SCF Done:  E(RHF) =  -689.779512950     A.U. after   17 cycles
 E2 =    -0.2107601123D+01 EUMP2 =    -0.69188711407305D+03
 Normal termination of Gaussian 09 at Thu Aug 26 02:48:36 2021.

 ---------------------------------------------------------
 #P Geom=AllCheck Guess=TCheck SCRF=Check MP4=FrzG4/GTBas3
 ---------------------------------------------------------

 Structure from the checkpoint file:  "/public/home/users/caep010/.cache/gau_scr/Gau-204453.chk"
 ------
 NAGGOU
 ------
 Charge =  0 Multiplicity = 1

 SCF Done:  E(RHF) =  -689.827269590     A.U. after   12 cycles
 E2 =    -0.2454396374D+01 EUMP2 =    -0.69228166596353D+03
 Normal termination of Gaussian 09 at Thu Aug 26 07:04:39 2021.

 -----------------------------------------------------------
 #P Geom=AllCheck Guess=TCheck SCRF=Check MP2=Full/GTLargeXP
 -----------------------------------------------------------

 Structure from the checkpoint file:  "/public/home/users/caep010/.cache/gau_scr/Gau-204453.chk"
 ------
 NAGGOU
 ------
 Charge =  0 Multiplicity = 1

 SCF Done:  E(RHF) =  -689.991703228     A.U. after   14 cycles
 E2 =    -0.3210964241D+01 EUMP2 =    -0.69320266746958D+03
 Normal termination of Gaussian 09 at Thu Aug 26 07:16:50 2021.
 SCF Done:  E(RHF) =  -690.046045030     A.U. after    9 cycles
 Normal termination of Gaussian 09 at Thu Aug 26 07:24:08 2021.

                         Standard orientation:
 ---------------------------------------------------------------------
 Center     Atomic      Atomic             Coordinates (Angstroms)
 Number     Number       Type             X           Y           Z
 ---------------------------------------------------------------------
      1          6           0       -2.010873    0.000095   -0.000667
      2          6           0       -1.353225    1.218109   -0.118123
      3          1           0       -1.930516    2.127632   -0.211085
      4          6           0        0.034213    1.234110   -0.127398
      5          6           0        0.739104    0.034290   -0.005367
      6          6           0        0.066869   -1.185111    0.109448
      7          1           0        0.635847   -2.100539    0.198561
      8          1           0        0.558909    2.173515   -0.249634
      9          6           0       -1.320023   -1.201378    0.107601
     10          1           0       -1.873425   -2.126272    0.195743
     11          7           0       -3.484017   -0.016972    0.005435
     12          7           0        2.153924    0.044784    0.001778
     13          7           0        2.878646   -1.067879   -0.297854
     14          7           0        4.116806   -0.740869   -0.193987
     15          6           0        3.036511    1.029966    0.288465
     16          1           0        2.762052    2.027882    0.584932
     17          7           0        4.256099    0.564867    0.174359
     18          8           0       -4.060296    1.058416   -0.090201
     19          8           0       -4.034520   -1.104694    0.106402
 ---------------------------------------------------------------------

 SCF Done:  E(RHF) =  -690.056146371     A.U. after    8 cycles

 The electronic state is 1-A.
 Alpha  occ. eigenvalues --  -20.61460 -20.61418 -15.86814 -15.70509 -15.67837
 Alpha  occ. eigenvalues --  -15.66624 -15.61965 -11.35384 -11.35303 -11.32915
 Alpha  occ. eigenvalues --  -11.30116 -11.29882 -11.29433 -11.28748  -1.62008
 Alpha  occ. eigenvalues --   -1.51079  -1.41445  -1.30407  -1.22181  -1.21106
 Alpha  occ. eigenvalues --   -1.11385  -1.08197  -0.99963  -0.93070  -0.90834
 Alpha  occ. eigenvalues --   -0.87598  -0.84634  -0.80523  -0.79195  -0.74550
 Alpha  occ. eigenvalues --   -0.73530  -0.71065  -0.70597  -0.68132  -0.67214
 Alpha  occ. eigenvalues --   -0.65166  -0.62940  -0.58816  -0.57453  -0.55817
 Alpha  occ. eigenvalues --   -0.51212  -0.51098  -0.49441  -0.49332  -0.48710
 Alpha  occ. eigenvalues --   -0.47000  -0.43802  -0.39698  -0.37941
 Alpha virt. eigenvalues --    0.01158   0.02099   0.03500   0.03896   0.04250
 Alpha virt. eigenvalues --    0.05487   0.05776   0.05975   0.06244   0.06744
 Alpha virt. eigenvalues --    0.07059   0.07675   0.08118   0.08529   0.08768

 Mulliken charges:
               1
     1  C    0.129953
     2  C   -0.179310
     3  H    0.269238
     4  C   -0.238555
     5  C    0.241332
     6  C   -0.228400
     7  H    0.258598
     8  H    0.213946
     9  C   -0.177588
    10  H    0.271470
    11  N    0.507912
    12  N    0.122991
    13  N   -0.129030
    14  N   -0.127002
    15  C   -0.012812
    16  H    0.250618
    17  N   -0.317501
    18  O   -0.429491
    19  O   -0.426371
 Sum of Mulliken charges =  -0.00000

 Dipole moment (field-independent basis, Debye):
    X=              0.1142    Y=              2.3963    Z=              0.6482  Tot=              2.4851
 Quadrupole moment (field-independent basis, Debye-Ang):
   XX=           -126.8088   YY=            -73.1044   ZZ=            -80.1363
   XY=              6.4751   XZ=              1.8800   YZ=             -0.6900

 Normal termination of Gaussian 09 at Thu Aug 26 08:18:47 2021.
