 Gaussian 09, Revision E.01,
 Gaussian 09:  ES64L-G09RevE.01 30-Nov-2015

 ----------------
 #P G4 OPT=calcfc
 ----------------

 ------
 NABMOS
 ------
 Symbolic Z-matrix:
 Charge =  0 Multiplicity = 1

 SCF Done:  E(RB3LYP) =  -637.533853201     A.U. after   15 cycles
 SCF Done:  E(RB3LYP) =  -637.603905412     A.U. after   15 cycles
 SCF Done:  E(RB3LYP) =  -637.581790013     A.U. after   16 cycles
 SCF Done:  E(RB3LYP) =  -637.617565074     A.U. after   13 cycles
 SCF Done:  E(RB3LYP) =  -637.633789597     A.U. after   15 cycles
 SCF Done:  E(RB3LYP) =  -637.632669108     A.U. after   14 cycles
 SCF Done:  E(RB3LYP) =  -637.634441480     A.U. after   10 cycles
 SCF Done:  E(RB3LYP) =  -637.636352470     A.U. after   14 cycles
 SCF Done:  E(RB3LYP) =  -637.636621393     A.U. after   13 cycles
 SCF Done:  E(RB3LYP) =  -637.636650425     A.U. after   12 cycles
 SCF Done:  E(RB3LYP) =  -637.636678465     A.U. after   11 cycles
 SCF Done:  E(RB3LYP) =  -637.636679852     A.U. after    9 cycles
 SCF Done:  E(RB3LYP) =  -637.636680041     A.U. after    7 cycles
 Optimization completed.
    -- Stationary point found.
 Normal termination of Gaussian 09 at Thu Aug 26 05:26:54 2021.

 ----------------------------------------------------------
 #P Geom=AllCheck Guess=TCheck SCRF=Check B3LYP/GTBas3 Freq
 ----------------------------------------------------------

 Structure from the checkpoint file:  "/public/home/users/caep010/.cache/gau_scr/Gau-149610.chk"
 ------
 NABMOS
 ------
 Charge =  0 Multiplicity = 1

 SCF Done:  E(RB3LYP) =  -637.636680041     A.U. after    1 cycles

  Exact polarizability:  98.987  -0.000  84.019   3.108   0.003  47.762
 Approx polarizability: 140.421  -0.002 157.846   8.712   0.011  76.779

                      1                      2                      3
                      A                      A                      A
 Frequencies --     49.7940                96.6590               148.2442
 Red. masses --      5.9726                 8.6998                 3.6757
 Frc consts  --      0.0087                 0.0479                 0.0476
 IR Inten    --      7.7866                 0.1030                 0.7507

                      4                      5                      6
                      A                      A                      A
 Frequencies --    159.8640               166.0576               219.3026
 Red. masses --      4.3902                 9.5999                 2.8527
 Frc consts  --      0.0661                 0.1560                 0.0808
 IR Inten    --      0.2740                 7.5470                21.0889

                      7                      8                      9
                      A                      A                      A
 Frequencies --    243.0727               294.1835               348.8459
 Red. masses --      2.9190                 6.2425                12.3355
 Frc consts  --      0.1016                 0.3183                 0.8845
 IR Inten    --      2.3009                 0.9475                 0.0001

                     10                     11                     12
                      A                      A                      A
 Frequencies --    477.6221               581.0313               647.1318
 Red. masses --      5.3697                 9.6637                 5.2993
 Frc consts  --      0.7217                 1.9222                 1.3075
 IR Inten    --      3.2934                 7.9706                 2.9191

                     13                     14                     15
                      A                      A                      A
 Frequencies --    720.1483               767.0762               792.5500
 Red. masses --      3.1331                 9.5959                11.9940
 Frc consts  --      0.9574                 3.3267                 4.4388
 IR Inten    --      4.7737                 3.5325                32.4780

                     16                     17                     18
                      A                      A                      A
 Frequencies --    794.4739               853.3307               878.9937
 Red. masses --     12.9108                 2.8924                 6.9683
 Frc consts  --      4.8013                 1.2409                 3.1721
 IR Inten    --      0.3952                35.2440                 0.1318

                     19                     20                     21
                      A                      A                      A
 Frequencies --    916.3163              1004.7403              1091.6698
 Red. masses --      2.0742                 2.0458                 1.9210
 Frc consts  --      1.0261                 1.2168                 1.3488
 IR Inten    --      1.7992                 1.2318                22.3298

                     22                     23                     24
                      A                      A                      A
 Frequencies --   1114.8866              1119.5335              1138.0517
 Red. masses --      2.6414                 1.7635                 3.1918
 Frc consts  --      1.9344                 1.3023                 2.4356
 IR Inten    --    134.5309                 9.4941                 1.1335

                     25                     26                     27
                      A                      A                      A
 Frequencies --   1188.9705              1216.0176              1233.8762
 Red. masses --      1.1422                 1.2097                 1.9394
 Frc consts  --      0.9513                 1.0539                 1.7396
 IR Inten    --      7.0720                46.6790                 2.7651

                     28                     29                     30
                      A                      A                      A
 Frequencies --   1249.2589              1285.6522              1323.9958
 Red. masses --      6.7927                 2.4649                 3.1914
 Frc consts  --      6.2459                 2.4005                 3.2962
 IR Inten    --      5.4959                23.8976               630.4126

                     31                     32                     33
                      A                      A                      A
 Frequencies --   1344.3157              1351.0593              1400.6833
 Red. masses --      1.3800                 3.1611                 2.8611
 Frc consts  --      1.4693                 3.3997                 3.3072
 IR Inten    --     45.1157                40.8300                33.4103

                     34                     35                     36
                      A                      A                      A
 Frequencies --   1420.0039              1513.2290              1521.6421
 Red. masses --      2.0479                 1.0882                 1.0846
 Frc consts  --      2.4330                 1.4681                 1.4795
 IR Inten    --    118.5228                 3.0244                 0.0457

                     37                     38                     39
                      A                      A                      A
 Frequencies --   1543.4672              1652.3331              1658.2906
 Red. masses --      1.0831                14.3926                14.2823
 Frc consts  --      1.5203                23.1518                23.1403
 IR Inten    --      0.9658                64.8570               478.6664

                     40                     41                     42
                      A                      A                      A
 Frequencies --   3045.5045              3052.7756              3062.4009
 Red. masses --      1.0712                 1.0649                 1.0558
 Frc consts  --      5.8537                 5.8469                 5.8338
 IR Inten    --     13.9315                14.8629                 4.7228

                     43                     44                     45
                      A                      A                      A
 Frequencies --   3106.2295              3133.4607              3140.0001
 Red. masses --      1.1114                 1.0952                 1.1007
 Frc consts  --      6.3183                 6.3359                 6.3943
 IR Inten    --      6.1846                 5.7734                 6.6644

 - Thermochemistry -
 -------------------
 Temperature   298.150 Kelvin.  Pressure   1.00000 Atm.
 Atom     1 has atomic number  7 and mass  14.00307

 Molecular mass:   162.03890 amu.
 Principal axes and moments of inertia in atomic units:
                           1         2         3
     Eigenvalues --   633.814332700.557793281.23934
           X            1.00000  -0.00000   0.00167
           Y            0.00000   1.00000   0.00000
           Z           -0.00167  -0.00000   1.00000
 This molecule is an asymmetric top.
 Rotational symmetry number  1.
 Warning -- assumption of classical behavior for rotation
           may cause significant error
 Rotational temperatures (Kelvin)      0.13665     0.03207     0.02640
 Rotational constants (GHZ):           2.84743     0.66828     0.55002
 Zero-point vibrational energy     323391.0 (Joules/Mol)
                                   77.29229 (Kcal/Mol)
 Warning -- explicit consideration of  11 degrees of freedom as
           vibrations may cause significant error
 Vibrational temperatures:     71.64   139.07   213.29   230.01   238.92
          (Kelvin)            315.53   349.73   423.26   501.91   687.19
                              835.97   931.08  1036.13  1103.65  1140.30
                             1143.07  1227.75  1264.67  1318.37  1445.60
                             1570.67  1604.07  1610.76  1637.40  1710.66
                             1749.58  1775.27  1797.40  1849.76  1904.93
                             1934.17  1943.87  2015.27  2043.07  2177.20
                             2189.30  2220.70  2377.34  2385.91  4381.80
                             4392.26  4406.11  4469.17  4508.35  4517.75

 Zero-point correction=                           0.123173 (Hartree/Particle)
 Thermal correction to Energy=                    0.132628
 Thermal correction to Enthalpy=                  0.133572
 Thermal correction to Gibbs Free Energy=         0.087329
 Sum of electronic and zero-point Energies=           -637.513507
 Sum of electronic and thermal Energies=              -637.504052
 Sum of electronic and thermal Enthalpies=            -637.503108
 Sum of electronic and thermal Free Energies=         -637.549352

                     E (Thermal)             CV                S
                      KCal/Mol        Cal/Mol-Kelvin    Cal/Mol-Kelvin
 Total                   83.225             33.366             97.328
 Electronic               0.000              0.000              0.000
 Translational            0.889              2.981             41.157
 Rotational               0.889              2.981             30.108
 Vibrational             81.448             27.404             26.063
 Vibration     1          0.595              1.978              4.826
 Vibration     2          0.603              1.952              3.521
 Vibration     3          0.618              1.905              2.695
 Vibration     4          0.622              1.892              2.551
 Vibration     5          0.624              1.884              2.480
 Vibration     6          0.647              1.812              1.965
 Vibration     7          0.659              1.774              1.780
 Vibration     8          0.689              1.685              1.450
 Vibration     9          0.726              1.578              1.171
 Vibration    10          0.834              1.300              0.717
 Vibration    11          0.938              1.072              0.483

 Optimization completed.
    -- Stationary point found.
 Normal termination of Gaussian 09 at Thu Aug 26 05:28:42 2021.

 -----------------------------------------------------------------
 #P Geom=AllCheck Guess=TCheck SCRF=Check CCSD(T,E4T,FrzG4)/GTBas1
 -----------------------------------------------------------------

 Structure from the checkpoint file:  "/public/home/users/caep010/.cache/gau_scr/Gau-149610.chk"
 ------
 NABMOS
 ------
 Charge =  0 Multiplicity = 1

 SCF Done:  E(RHF) =  -634.037185615     A.U. after   14 cycles
 E2 =    -0.1794822057D+01 EUMP2 =    -0.63583200767178D+03
 CCSD(T)
 CCSD(T)= -0.63592012131D+03
 9\CCSD=-635.8465652\CCSD(T)=-635.9201213\RMSD=6.561e-09\PG=C01 [X(C3H6
 Normal termination of Gaussian 09 at Thu Aug 26 06:10:54 2021.

 ---------------------------------------------------------
 #P Geom=AllCheck Guess=TCheck SCRF=Check MP4=FrzG4/GTBas2
 ---------------------------------------------------------

 Structure from the checkpoint file:  "/public/home/users/caep010/.cache/gau_scr/Gau-149610.chk"
 ------
 NABMOS
 ------
 Charge =  0 Multiplicity = 1

 SCF Done:  E(RHF) =  -634.055288867     A.U. after   14 cycles
 E2 =    -0.1819870027D+01 EUMP2 =    -0.63587515889443D+03
 Normal termination of Gaussian 09 at Thu Aug 26 06:26:38 2021.

 ---------------------------------------------------------
 #P Geom=AllCheck Guess=TCheck SCRF=Check MP4=FrzG4/GTBas3
 ---------------------------------------------------------

 Structure from the checkpoint file:  "/public/home/users/caep010/.cache/gau_scr/Gau-149610.chk"
 ------
 NABMOS
 ------
 Charge =  0 Multiplicity = 1

 SCF Done:  E(RHF) =  -634.104804995     A.U. after   12 cycles
 E2 =    -0.2155987491D+01 EUMP2 =    -0.63626079248522D+03
 Normal termination of Gaussian 09 at Thu Aug 26 08:05:02 2021.

 -----------------------------------------------------------
 #P Geom=AllCheck Guess=TCheck SCRF=Check MP2=Full/GTLargeXP
 -----------------------------------------------------------

 Structure from the checkpoint file:  "/public/home/users/caep010/.cache/gau_scr/Gau-149610.chk"
 ------
 NABMOS
 ------
 Charge =  0 Multiplicity = 1

 SCF Done:  E(RHF) =  -634.270223559     A.U. after   12 cycles
 E2 =    -0.2787576138D+01 EUMP2 =    -0.63705779969646D+03
 Normal termination of Gaussian 09 at Thu Aug 26 08:16:54 2021.
 SCF Done:  E(RHF) =  -634.321787007     A.U. after   10 cycles
 Normal termination of Gaussian 09 at Thu Aug 26 08:21:11 2021.

                         Standard orientation:
 ---------------------------------------------------------------------
 Center     Atomic      Atomic             Coordinates (Angstroms)
 Number     Number       Type             X           Y           Z
 ---------------------------------------------------------------------
      1          7           0       -1.090102    0.127718    0.293093
      2          7           0       -2.372896   -0.315222    0.042735
      3          8           0       -3.228315    0.547765   -0.087478
      4          6           0       -0.762301    1.510790   -0.065584
      5          6           0        0.762288    1.510809    0.065043
      6          7           0        1.090278    0.127790   -0.293809
      7          7           0        2.372920   -0.315215   -0.042277
      8          8           0        2.530571   -1.527655   -0.012164
      9          8           0        3.228190    0.547770    0.088866
     10          6           0       -0.000023   -0.805778   -0.000886
     11          8           0       -2.530554   -1.527647    0.012533
     12          1           0       -0.235021   -1.443060   -0.857758
     13          1           0        0.234825   -1.444069    0.855071
     14          1           0        1.089722    1.735405    1.086530
     15          1           0        1.244186    2.212055   -0.615856
     16          1           0       -1.244231    2.211872    0.615406
     17          1           0       -1.089801    1.735507   -1.087089
 ---------------------------------------------------------------------

 SCF Done:  E(RHF) =  -634.332160107     A.U. after    8 cycles

 The electronic state is 1-A.
 Alpha  occ. eigenvalues --  -20.61803 -20.61801 -20.61767 -20.61766 -15.90435
 Alpha  occ. eigenvalues --  -15.90435 -15.67532 -15.67531 -11.35578 -11.32198
 Alpha  occ. eigenvalues --  -11.32136  -1.64582  -1.64424  -1.42924  -1.42894
 Alpha  occ. eigenvalues --   -1.37107  -1.28291  -1.09978  -1.04637  -0.95899
 Alpha  occ. eigenvalues --   -0.86007  -0.84481  -0.82286  -0.80045  -0.77827
 Alpha  occ. eigenvalues --   -0.76905  -0.75259  -0.75151  -0.69471  -0.65946
 Alpha  occ. eigenvalues --   -0.63018  -0.62545  -0.61063  -0.59993  -0.54077
 Alpha  occ. eigenvalues --   -0.52789  -0.51368  -0.51091  -0.48492  -0.48260
 Alpha  occ. eigenvalues --   -0.46281  -0.44161
 Alpha virt. eigenvalues --    0.02625   0.03617   0.04377   0.04418   0.06001
 Alpha virt. eigenvalues --    0.06183   0.06652   0.06881   0.07475   0.08262
 Alpha virt. eigenvalues --    0.08927   0.09258   0.10004   0.10758   0.11878

 Mulliken charges:
               1
     1  N    0.016121
     2  N    0.572237
     3  O   -0.434242
     4  C   -0.251969
     5  C   -0.251991
     6  N    0.016022
     7  N    0.572359
     8  O   -0.432825
     9  O   -0.434232
    10  C   -0.240456
    11  O   -0.432840
    12  H    0.232206
    13  H    0.232293
    14  H    0.208490
    15  H    0.210173
    16  H    0.210222
    17  H    0.208430
 Sum of Mulliken charges =  -0.00000

 Dipole moment (field-independent basis, Debye):
    X=              0.0003    Y=              3.2319    Z=             -0.0027  Tot=              3.2319
 Quadrupole moment (field-independent basis, Debye-Ang):
   XX=            -91.5113   YY=            -62.5045   ZZ=            -59.9975
   XY=             -0.0002   XZ=             -0.3365   YZ=              0.0000

 Normal termination of Gaussian 09 at Thu Aug 26 08:50:31 2021.
