 Gaussian 09, Revision E.01,
 Gaussian 09:  ES64L-G09RevE.01 30-Nov-2015

 ----------------
 #P G4 OPT=calcfc
 ----------------

 ------
 NBARBA
 ------
 Symbolic Z-matrix:
 Charge =  0 Multiplicity = 1

 SCF Done:  E(RB3LYP) =  -694.506963724     A.U. after   16 cycles
 SCF Done:  E(RB3LYP) =  -694.585161902     A.U. after   14 cycles
 SCF Done:  E(RB3LYP) =  -694.596513138     A.U. after   14 cycles
 SCF Done:  E(RB3LYP) =  -694.603748213     A.U. after   14 cycles
 SCF Done:  E(RB3LYP) =  -694.604167876     A.U. after   13 cycles
 SCF Done:  E(RB3LYP) =  -694.604196472     A.U. after   10 cycles
 SCF Done:  E(RB3LYP) =  -694.604197795     A.U. after    8 cycles
 Optimization completed.
    -- Stationary point found.
 Normal termination of Gaussian 09 at Thu Aug 26 22:30:20 2021.

 ----------------------------------------------------------
 #P Geom=AllCheck Guess=TCheck SCRF=Check B3LYP/GTBas3 Freq
 ----------------------------------------------------------

 Structure from the checkpoint file:  "/public/home/users/caep010/.cache/gau_scr/Gau-153194.chk"
 ------
 NBARBA
 ------
 Charge =  0 Multiplicity = 1

 SCF Done:  E(RB3LYP) =  -694.604197795     A.U. after    1 cycles

  Exact polarizability: 115.292  -5.748  93.306  -0.000  -0.001  37.125
 Approx polarizability: 187.977 -22.808 182.488  -0.001  -0.009  60.633

                      1                      2                      3
                      A                      A                      A
 Frequencies --     62.8887               101.8740               140.2876
 Red. masses --     14.6458                13.0184                10.5005
 Frc consts  --      0.0341                 0.0796                 0.1218
 IR Inten    --      0.3251                 0.9287                 2.6312

                      4                      5                      6
                      A                      A                      A
 Frequencies --    191.7959               250.9645               268.3472
 Red. masses --      8.7230                10.1321                13.4290
 Frc consts  --      0.1891                 0.3760                 0.5698
 IR Inten    --      0.0007                 0.6192                 6.4603

                      7                      8                      9
                      A                      A                      A
 Frequencies --    362.1675               375.0137               411.8937
 Red. masses --      7.4088                11.8532                 8.1090
 Frc consts  --      0.5726                 0.9822                 0.8106
 IR Inten    --     12.6073                10.2318                 9.2292

                     10                     11                     12
                      A                      A                      A
 Frequencies --    472.3893               514.8463               605.4855
 Red. masses --     13.1443                 9.1774                 9.5521
 Frc consts  --      1.7282                 1.4333                 2.0633
 IR Inten    --      8.2518                25.2714                18.2347

                     13                     14                     15
                      A                      A                      A
 Frequencies --    607.7593               661.8281               678.3164
 Red. masses --      1.1585                 1.2023                 4.8986
 Frc consts  --      0.2521                 0.3103                 1.3280
 IR Inten    --     25.9842               103.8330                 3.6004

                     16                     17                     18
                      A                      A                      A
 Frequencies --    688.4134               723.5084               740.1203
 Red. masses --      8.6494                 5.7859                 8.0528
 Frc consts  --      2.4151                 1.7845                 2.5990
 IR Inten    --     14.2186                 7.8154                 1.6910

                     19                     20                     21
                      A                      A                      A
 Frequencies --    764.5146               805.6454               856.9633
 Red. masses --      9.9321                11.8928                10.4543
 Frc consts  --      3.4203                 4.5480                 4.5235
 IR Inten    --     45.8212                30.5499                13.3979

                     22                     23                     24
                      A                      A                      A
 Frequencies --   1004.8900              1024.4114              1107.2819
 Red. masses --      3.3304                 1.0716                 4.7701
 Frc consts  --      1.9815                 0.6626                 3.4458
 IR Inten    --     13.7555                72.9287                26.5650

                     25                     26                     27
                      A                      A                      A
 Frequencies --   1149.3702              1231.6147              1246.4674
 Red. masses --      4.0406                 5.8562                 8.9115
 Frc consts  --      3.1449                 5.2338                 8.1576
 IR Inten    --     90.5764               124.8049                24.3901

                     28                     29                     30
                      A                      A                      A
 Frequencies --   1349.3992              1391.3911              1393.6064
 Red. masses --      1.7359                 1.7764                 8.8424
 Frc consts  --      1.8623                 2.0262                10.1181
 IR Inten    --     68.3421                41.7997               141.3953

                     31                     32                     33
                      A                      A                      A
 Frequencies --   1444.2664              1564.1229              1637.8453
 Red. masses --      2.6348                 7.9434                 7.9025
 Frc consts  --      3.2381                11.4498                12.4900
 IR Inten    --     61.3719               647.4931               452.5017

                     34                     35                     36
                      A                      A                      A
 Frequencies --   1679.3221              1819.4427              1855.3523
 Red. masses --      2.6432                10.0282                 9.5166
 Frc consts  --      4.3919                19.5591                19.3013
 IR Inten    --    283.2973               469.9262               574.8240

                     37                     38                     39
                      A                      A                      A
 Frequencies --   2611.6449              3613.6706              3617.5957
 Red. masses --      1.0815                 1.0769                 1.0780
 Frc consts  --      4.3460                 8.2858                 8.3123
 IR Inten    --    492.5219                96.8668               119.3506

 - Thermochemistry -
 -------------------
 Temperature   298.150 Kelvin.  Pressure   1.00000 Atm.
 Atom     1 has atomic number  6 and mass  12.00000

 Molecular mass:   173.00727 amu.
 Principal axes and moments of inertia in atomic units:
                           1         2         3
     Eigenvalues --  1097.545942187.771323285.31721
           X            0.99994   0.01089  -0.00000
           Y           -0.01089   0.99994   0.00000
           Z            0.00000  -0.00000   1.00000
 This molecule is an asymmetric top.
 Rotational symmetry number  1.
 Warning -- assumption of classical behavior for rotation
           may cause significant error
 Rotational temperatures (Kelvin)      0.07892     0.03959     0.02636
 Rotational constants (GHZ):           1.64434     0.82492     0.54934
 Zero-point vibrational energy     245394.3 (Joules/Mol)
                                   58.65064 (Kcal/Mol)
 Warning -- explicit consideration of  13 degrees of freedom as
           vibrations may cause significant error
 Vibrational temperatures:     90.48   146.57   201.84   275.95   361.08
          (Kelvin)            386.09   521.08   539.56   592.62   679.66
                              740.75   871.16   874.43   952.22   975.94
                              990.47  1040.97  1064.87  1099.96  1159.14
                             1232.98  1445.81  1473.90  1593.13  1653.69
                             1772.02  1793.39  1941.48  2001.90  2005.09
                             2077.97  2250.42  2356.49  2416.17  2617.77
                             2669.43  3757.57  5199.26  5204.91

 Zero-point correction=                           0.093466 (Hartree/Particle)
 Thermal correction to Energy=                    0.102753
 Thermal correction to Enthalpy=                  0.103698
 Thermal correction to Gibbs Free Energy=         0.058153
 Sum of electronic and zero-point Energies=           -694.510732
 Sum of electronic and thermal Energies=              -694.501444
 Sum of electronic and thermal Enthalpies=            -694.500500
 Sum of electronic and thermal Free Energies=         -694.546045

                     E (Thermal)             CV                S
                      KCal/Mol        Cal/Mol-Kelvin    Cal/Mol-Kelvin
 Total                   64.479             34.523             95.858
 Electronic               0.000              0.000              0.000
 Translational            0.889              2.981             41.352
 Rotational               0.889              2.981             30.446
 Vibrational             62.701             28.561             24.060
 Vibration     1          0.597              1.972              4.364
 Vibration     2          0.604              1.948              3.418
 Vibration     3          0.615              1.913              2.800
 Vibration     4          0.634              1.851              2.210
 Vibration     5          0.663              1.761              1.724
 Vibration     6          0.673              1.731              1.607
 Vibration     7          0.736              1.550              1.113
 Vibration     8          0.746              1.523              1.059
 Vibration     9          0.776              1.444              0.920
 Vibration    10          0.829              1.311              0.731
 Vibration    11          0.870              1.217              0.622
 Vibration    12          0.964              1.020              0.440
 Vibration    13          0.967              1.015              0.437

 Optimization completed.
    -- Stationary point found.
 Normal termination of Gaussian 09 at Thu Aug 26 22:32:23 2021.

 -----------------------------------------------------------------
 #P Geom=AllCheck Guess=TCheck SCRF=Check CCSD(T,E4T,FrzG4)/GTBas1
 -----------------------------------------------------------------

 Structure from the checkpoint file:  "/public/home/users/caep010/.cache/gau_scr/Gau-153194.chk"
 ------
 NBARBA
 ------
 Charge =  0 Multiplicity = 1

 SCF Done:  E(RHF) =  -690.791360828     A.U. after   14 cycles
 E2 =    -0.1887262690D+01 EUMP2 =    -0.69267862351803D+03
 CCSD(T)
 CCSD(T)= -0.69276201736D+03
 MP4SDTQ=-692.7844868\MP4SDQ=-692.695267\CCSD=-692.6860522\CCSD(T)=-692
 Normal termination of Gaussian 09 at Thu Aug 26 23:24:01 2021.

 ---------------------------------------------------------
 #P Geom=AllCheck Guess=TCheck SCRF=Check MP4=FrzG4/GTBas2
 ---------------------------------------------------------

 Structure from the checkpoint file:  "/public/home/users/caep010/.cache/gau_scr/Gau-153194.chk"
 ------
 NBARBA
 ------
 Charge =  0 Multiplicity = 1

 SCF Done:  E(RHF) =  -690.810016647     A.U. after   13 cycles
 E2 =    -0.1913532726D+01 EUMP2 =    -0.69272354937282D+03
 Normal termination of Gaussian 09 at Thu Aug 26 23:42:22 2021.

 ---------------------------------------------------------
 #P Geom=AllCheck Guess=TCheck SCRF=Check MP4=FrzG4/GTBas3
 ---------------------------------------------------------

 Structure from the checkpoint file:  "/public/home/users/caep010/.cache/gau_scr/Gau-153194.chk"
 ------
 NBARBA
 ------
 Charge =  0 Multiplicity = 1

 SCF Done:  E(RHF) =  -690.869016021     A.U. after   13 cycles
 E2 =    -0.2261964124D+01 EUMP2 =    -0.69313098014598D+03
 Normal termination of Gaussian 09 at Fri Aug 27 01:44:13 2021.

 -----------------------------------------------------------
 #P Geom=AllCheck Guess=TCheck SCRF=Check MP2=Full/GTLargeXP
 -----------------------------------------------------------

 Structure from the checkpoint file:  "/public/home/users/caep010/.cache/gau_scr/Gau-153194.chk"
 ------
 NBARBA
 ------
 Charge =  0 Multiplicity = 1

 SCF Done:  E(RHF) =  -691.052287159     A.U. after   14 cycles
 E2 =    -0.2947909418D+01 EUMP2 =    -0.69400019657668D+03
 Normal termination of Gaussian 09 at Fri Aug 27 01:57:50 2021.
 SCF Done:  E(RHF) =  -691.106925713     A.U. after   10 cycles
 Normal termination of Gaussian 09 at Fri Aug 27 02:02:43 2021.

                         Standard orientation:
 ---------------------------------------------------------------------
 Center     Atomic      Atomic             Coordinates (Angstroms)
 Number     Number       Type             X           Y           Z
 ---------------------------------------------------------------------
      1          6           0        2.259600   -0.064863   -0.000045
      2          7           0        1.564414    1.119080    0.000153
      3          1           0        2.124106    1.961451    0.000091
      4          6           0        0.165417    1.337888    0.000129
      5          6           0       -0.596654    0.086502    0.000099
      6          6           0        0.063929   -1.147669    0.000057
      7          7           0        1.416533   -1.187638    0.000025
      8          1           0        1.871739   -2.090473   -0.000247
      9          7           0       -2.016422    0.092069   -0.000076
     10          8           0        3.459759   -0.172035   -0.000256
     11          8           0       -0.531579   -2.299875    0.000048
     12          1           0       -1.533660   -2.040295    0.000004
     13          8           0       -0.254967    2.467866    0.000234
     14          8           0       -2.608404   -1.035308    0.000226
     15          8           0       -2.635761    1.131050   -0.000502
 ---------------------------------------------------------------------

 SCF Done:  E(RHF) =  -691.117848858     A.U. after    8 cycles

 The electronic state is 1-A.
 Alpha  occ. eigenvalues --  -20.65534 -20.63785 -20.61911 -20.57772 -20.56513
 Alpha  occ. eigenvalues --  -15.88680 -15.67858 -15.65085 -11.45974 -11.45104
 Alpha  occ. eigenvalues --  -11.41659 -11.32741  -1.63142  -1.51444  -1.46773
 Alpha  occ. eigenvalues --   -1.43349  -1.41577  -1.33947  -1.27312  -1.17309
 Alpha  occ. eigenvalues --   -1.00567  -0.95668  -0.93298  -0.85646  -0.82892
 Alpha  occ. eigenvalues --   -0.79277  -0.75897  -0.75795  -0.74762  -0.71611
 Alpha  occ. eigenvalues --   -0.70955  -0.68914  -0.67858  -0.65226  -0.63776
 Alpha  occ. eigenvalues --   -0.59972  -0.54229  -0.52413  -0.52214  -0.51592
 Alpha  occ. eigenvalues --   -0.49347  -0.47144  -0.46408  -0.40918
 Alpha virt. eigenvalues --    0.02514   0.03199   0.03740   0.03908   0.04458
 Alpha virt. eigenvalues --    0.05843   0.06219   0.06664   0.07122   0.07367
 Alpha virt. eigenvalues --    0.08528   0.08882   0.09314   0.09489   0.10007

 Mulliken charges:
               1
     1  C    0.589597
     2  N   -0.448678
     3  H    0.418374
     4  C    0.476655
     5  C    0.072178
     6  C    0.563215
     7  N   -0.440557
     8  H    0.420522
     9  N    0.480916
    10  O   -0.616834
    11  O   -0.576805
    12  H    0.458739
    13  O   -0.556796
    14  O   -0.510299
    15  O   -0.330227
 Sum of Mulliken charges =  -0.00000

 Dipole moment (field-independent basis, Debye):
    X=              2.3045    Y=             -3.2163    Z=             -0.0003  Tot=              3.9566
 Quadrupole moment (field-independent basis, Debye-Ang):
   XX=            -85.9753   YY=            -70.9555   ZZ=            -65.0376
   XY=              3.7634   XZ=              0.0007   YZ=              0.0012

 Normal termination of Gaussian 09 at Fri Aug 27 02:36:55 2021.
