 Gaussian 09, Revision E.01,
 Gaussian 09:  ES64L-G09RevE.01 30-Nov-2015

 ----------------
 #P G4 OPT=calcfc
 ----------------

 ------
 NIPYAZ
 ------
 Symbolic Z-matrix:
 Charge =  0 Multiplicity = 1

 SCF Done:  E(RB3LYP) =  -430.636605272     A.U. after   16 cycles
 SCF Done:  E(RB3LYP) =  -430.688987422     A.U. after   13 cycles
 SCF Done:  E(RB3LYP) =  -430.696531003     A.U. after   14 cycles
 SCF Done:  E(RB3LYP) =  -430.696898235     A.U. after   13 cycles
 SCF Done:  E(RB3LYP) =  -430.696911388     A.U. after   11 cycles
 SCF Done:  E(RB3LYP) =  -430.696911959     A.U. after    8 cycles
 Optimization completed.
    -- Stationary point found.
 Normal termination of Gaussian 09 at Fri Aug 27 06:46:27 2021.

 ----------------------------------------------------------
 #P Geom=AllCheck Guess=TCheck SCRF=Check B3LYP/GTBas3 Freq
 ----------------------------------------------------------

 Structure from the checkpoint file:  "/public/home/users/caep010/.cache/gau_scr/Gau-125498.chk"
 ------
 NIPYAZ
 ------
 Charge =  0 Multiplicity = 1

 SCF Done:  E(RB3LYP) =  -430.696911959     A.U. after    2 cycles

  Exact polarizability:  83.812   1.053  63.133  -0.001  -0.001  27.247
 Approx polarizability: 134.714   1.451 128.190  -0.001   0.002  43.850

                      1                      2                      3
                      A                      A                      A
 Frequencies --     92.7624               159.1314               263.8305
 Red. masses --      7.7652                 6.5718                 7.0742
 Frc consts  --      0.0394                 0.0980                 0.2901
 IR Inten    --      1.6323                 0.0235                 0.4217

                      4                      5                      6
                      A                      A                      A
 Frequencies --    441.5453               579.3211               587.8935
 Red. masses --     10.4397                 9.2644                 4.3242
 Frc consts  --      1.1992                 1.8319                 0.8806
 IR Inten    --      7.9241                 0.3080                 1.4072

                      7                      8                      9
                      A                      A                      A
 Frequencies --    654.5096               763.7391               780.9247
 Red. masses --      4.4085                 4.2980                 1.4941
 Frc consts  --      1.1127                 1.4771                 0.5368
 IR Inten    --      5.3908                 0.0632                61.0417

                     10                     11                     12
                      A                      A                      A
 Frequencies --    834.4614               868.5249               915.3783
 Red. masses --     12.9171                 1.2582                 1.3389
 Frc consts  --      5.2994                 0.5592                 0.6610
 IR Inten    --    129.5471                 1.4978                 3.4858

                     13                     14                     15
                      A                      A                      A
 Frequencies --    919.4705               964.4824              1050.0930
 Red. masses --      6.3698                 3.6905                 1.4020
 Frc consts  --      3.1729                 2.0227                 0.9109
 IR Inten    --     12.5408                16.5461               100.0482

                     16                     17                     18
                      A                      A                      A
 Frequencies --   1071.9566              1191.1225              1258.4253
 Red. masses --      2.0853                 2.4322                 1.9241
 Frc consts  --      1.4118                 2.0331                 1.7953
 IR Inten    --     26.9009               132.7929                21.4993

                     19                     20                     21
                      A                      A                      A
 Frequencies --   1329.3154              1358.9791              1415.4354
 Red. masses --      7.8154                 4.2401                 4.4406
 Frc consts  --      8.1369                 4.6137                 5.2417
 IR Inten    --    260.2479               127.9129                18.1459

                     22                     23                     24
                      A                      A                      A
 Frequencies --   1440.9602              1566.9917              1729.6866
 Red. masses --      4.6102                 4.5861                14.3721
 Frc consts  --      5.6399                 6.6348                25.3341
 IR Inten    --      7.4222                 7.7975               259.5089

                     25                     26                     27
                      A                      A                      A
 Frequencies --   3247.3755              3275.5862              3314.7577
 Red. masses --      1.0941                 1.0971                 1.1024
 Frc consts  --      6.7979                 6.9357                 7.1363
 IR Inten    --      2.1646                 0.4212                 8.1817

 - Thermochemistry -
 -------------------
 Temperature   298.150 Kelvin.  Pressure   1.00000 Atm.
 Atom     1 has atomic number  6 and mass  12.00000

 Molecular mass:   113.02253 amu.
 Principal axes and moments of inertia in atomic units:
                           1         2         3
     Eigenvalues --   330.17764 988.817581318.99520
           X            1.00000  -0.00291  -0.00000
           Y            0.00291   1.00000  -0.00001
           Z            0.00000   0.00001   1.00000
 This molecule is an asymmetric top.
 Rotational symmetry number  1.
 Rotational temperatures (Kelvin)      0.26232     0.08759     0.06567
 Rotational constants (GHZ):           5.46597     1.82515     1.36827
 Zero-point vibrational energy     191861.0 (Joules/Mol)
                                   45.85589 (Kcal/Mol)
 Warning -- explicit consideration of   6 degrees of freedom as
           vibrations may cause significant error
 Vibrational temperatures:    133.46   228.95   379.59   635.28   833.51
          (Kelvin)            845.85   941.69  1098.85  1123.58  1200.60
                             1249.61  1317.02  1322.91  1387.67  1510.85
                             1542.30  1713.76  1810.59  1912.59  1955.27
                             2036.49  2073.22  2254.55  2488.63  4672.24
                             4712.83  4769.19

 Zero-point correction=                           0.073076 (Hartree/Particle)
 Thermal correction to Energy=                    0.079067
 Thermal correction to Enthalpy=                  0.080011
 Thermal correction to Gibbs Free Energy=         0.042446
 Sum of electronic and zero-point Energies=           -430.623836
 Sum of electronic and thermal Energies=              -430.617845
 Sum of electronic and thermal Enthalpies=            -430.616901
 Sum of electronic and thermal Free Energies=         -430.654466

                     E (Thermal)             CV                S
                      KCal/Mol        Cal/Mol-Kelvin    Cal/Mol-Kelvin
 Total                   49.615             21.437             79.063
 Electronic               0.000              0.000              0.000
 Translational            0.889              2.981             40.083
 Rotational               0.889              2.981             27.557
 Vibrational             47.838             15.475             11.424
 Vibration     1          0.602              1.954              3.601
 Vibration     2          0.621              1.892              2.560
 Vibration     3          0.670              1.739              1.636
 Vibration     4          0.801              1.380              0.822
 Vibration     5          0.936              1.076              0.487
 Vibration     6          0.945              1.058              0.471

 Optimization completed.
    -- Stationary point found.
 Normal termination of Gaussian 09 at Fri Aug 27 06:47:08 2021.

 -----------------------------------------------------------------
 #P Geom=AllCheck Guess=TCheck SCRF=Check CCSD(T,E4T,FrzG4)/GTBas1
 -----------------------------------------------------------------

 Structure from the checkpoint file:  "/public/home/users/caep010/.cache/gau_scr/Gau-125498.chk"
 ------
 NIPYAZ
 ------
 Charge =  0 Multiplicity = 1

 SCF Done:  E(RHF) =  -428.220293020     A.U. after   15 cycles
 E2 =    -0.1253071197D+01 EUMP2 =    -0.42947336421665D+03
 CCSD(T)
 CCSD(T)= -0.42953487369D+03
 SDQ=-429.4824956\CCSD=-429.4777292\CCSD(T)=-429.5348737\RMSD=6.293e-09
 Normal termination of Gaussian 09 at Fri Aug 27 06:52:38 2021.

 ---------------------------------------------------------
 #P Geom=AllCheck Guess=TCheck SCRF=Check MP4=FrzG4/GTBas2
 ---------------------------------------------------------

 Structure from the checkpoint file:  "/public/home/users/caep010/.cache/gau_scr/Gau-125498.chk"
 ------
 NIPYAZ
 ------
 Charge =  0 Multiplicity = 1

 SCF Done:  E(RHF) =  -428.232587467     A.U. after   14 cycles
 E2 =    -0.1267900153D+01 EUMP2 =    -0.42950048762024D+03
 Normal termination of Gaussian 09 at Fri Aug 27 06:54:14 2021.

 ---------------------------------------------------------
 #P Geom=AllCheck Guess=TCheck SCRF=Check MP4=FrzG4/GTBas3
 ---------------------------------------------------------

 Structure from the checkpoint file:  "/public/home/users/caep010/.cache/gau_scr/Gau-125498.chk"
 ------
 NIPYAZ
 ------
 Charge =  0 Multiplicity = 1

 SCF Done:  E(RHF) =  -428.265129445     A.U. after   12 cycles
 E2 =    -0.1485591594D+01 EUMP2 =    -0.42975072103833D+03
 Normal termination of Gaussian 09 at Fri Aug 27 07:02:21 2021.

 -----------------------------------------------------------
 #P Geom=AllCheck Guess=TCheck SCRF=Check MP2=Full/GTLargeXP
 -----------------------------------------------------------

 Structure from the checkpoint file:  "/public/home/users/caep010/.cache/gau_scr/Gau-125498.chk"
 ------
 NIPYAZ
 ------
 Charge =  0 Multiplicity = 1

 SCF Done:  E(RHF) =  -428.373393593     A.U. after   14 cycles
 E2 =    -0.1930654332D+01 EUMP2 =    -0.43030404792500D+03
 Normal termination of Gaussian 09 at Fri Aug 27 07:06:19 2021.
 SCF Done:  E(RHF) =  -428.408511393     A.U. after   10 cycles
 Normal termination of Gaussian 09 at Fri Aug 27 07:09:22 2021.

                         Standard orientation:
 ---------------------------------------------------------------------
 Center     Atomic      Atomic             Coordinates (Angstroms)
 Number     Number       Type             X           Y           Z
 ---------------------------------------------------------------------
      1          6           0       -1.978477   -0.748222    0.000114
      2          6           0       -2.092699    0.670506   -0.000073
      3          6           0       -0.803400    1.129839   -0.000149
      4          7           0       -0.026331    0.000709   -0.000049
      5          7           0       -0.718739   -1.151409    0.000119
      6          7           0        1.404262   -0.013793    0.000005
      7          8           0        1.914449    1.089117    0.000232
      8          8           0        1.930115   -1.095622   -0.000200
      9          1           0       -2.769582   -1.484264    0.000232
     10          1           0       -2.991707    1.264723   -0.000117
     11          1           0       -0.362110    2.110301   -0.000243
 ---------------------------------------------------------------------

 SCF Done:  E(RHF) =  -428.415190065     A.U. after    7 cycles

 The electronic state is 1-A.
 Alpha  occ. eigenvalues --  -20.63333 -20.62578 -15.91813 -15.71884 -15.62772
 Alpha  occ. eigenvalues --  -11.32008 -11.29760 -11.26285  -1.65971  -1.44766
 Alpha  occ. eigenvalues --   -1.42702  -1.17722  -1.10607  -0.96725  -0.85344
 Alpha  occ. eigenvalues --   -0.83440  -0.79480  -0.77990  -0.75449  -0.69291
 Alpha  occ. eigenvalues --   -0.63899  -0.63215  -0.60814  -0.53592  -0.52713
 Alpha  occ. eigenvalues --   -0.50110  -0.48771  -0.41087  -0.38956
 Alpha virt. eigenvalues --    0.02981   0.03836   0.04006   0.05038   0.05264
 Alpha virt. eigenvalues --    0.06328   0.07079   0.07715   0.08065   0.08697
 Alpha virt. eigenvalues --    0.09752   0.10289   0.11447   0.12211   0.13992

 Mulliken charges:
               1
     1  C    0.016674
     2  C   -0.254567
     3  C   -0.127697
     4  N    0.222566
     5  N   -0.407814
     6  N    0.582769
     7  O   -0.409456
     8  O   -0.350258
     9  H    0.228104
    10  H    0.223821
    11  H    0.275859
 Sum of Mulliken charges =  -0.00000

 Dipole moment (field-independent basis, Debye):
    X=             -4.0236    Y=              2.0715    Z=             -0.0003  Tot=              4.5255
 Quadrupole moment (field-independent basis, Debye-Ang):
   XX=            -43.7560   YY=            -46.2178   ZZ=            -45.8186
   XY=             -0.1317   XZ=             -0.0005   YZ=             -0.0014

 Normal termination of Gaussian 09 at Fri Aug 27 07:19:31 2021.
