 Gaussian 09, Revision E.01,
 Gaussian 09:  ES64L-G09RevE.01 30-Nov-2015

 ----------------
 #P G4 OPT=calcfc
 ----------------

 ------
 NUQJEP
 ------
 Symbolic Z-matrix:
 Charge =  0 Multiplicity = 1

 SCF Done:  E(RB3LYP) =  -605.280839255     A.U. after   16 cycles
 SCF Done:  E(RB3LYP) =  -605.377256769     A.U. after   13 cycles
 SCF Done:  E(RB3LYP) =  -605.416897911     A.U. after   15 cycles
 SCF Done:  E(RB3LYP) =  -605.419055420     A.U. after   14 cycles
 SCF Done:  E(RB3LYP) =  -605.419267052     A.U. after   13 cycles
 SCF Done:  E(RB3LYP) =  -605.419280577     A.U. after   11 cycles
 SCF Done:  E(RB3LYP) =  -605.419284442     A.U. after    9 cycles
 SCF Done:  E(RB3LYP) =  -605.419284951     A.U. after    9 cycles
 Optimization completed.
    -- Stationary point found.
 Normal termination of Gaussian 09 at Fri Aug 27 07:50:53 2021.

 ----------------------------------------------------------
 #P Geom=AllCheck Guess=TCheck SCRF=Check B3LYP/GTBas3 Freq
 ----------------------------------------------------------

 Structure from the checkpoint file:  "/public/home/users/caep010/.cache/gau_scr/Gau-21003.chk"
 ------
 NUQJEP
 ------
 Charge =  0 Multiplicity = 1

 SCF Done:  E(RB3LYP) =  -605.419284951     A.U. after    1 cycles

  Exact polarizability: 170.147   4.711 108.655   0.001   0.000  41.821
 Approx polarizability: 272.504  12.886 202.908   0.005   0.006  69.326

                      1                      2                      3
                      A                      A                      A
 Frequencies --     52.3367                82.5765               116.9068
 Red. masses --     11.7480                 3.9400                 7.1913
 Frc consts  --      0.0190                 0.0158                 0.0579
 IR Inten    --      0.1363                 0.0086                 2.4219

                      4                      5                      6
                      A                      A                      A
 Frequencies --    162.3047               178.3255               247.6416
 Red. masses --      4.6296                 5.1840                 6.8146
 Frc consts  --      0.0719                 0.0971                 0.2462
 IR Inten    --      0.0291                 1.6675                 1.1687

                      7                      8                      9
                      A                      A                      A
 Frequencies --    316.1384               340.0940               402.2416
 Red. masses --      4.7659                10.7556                 7.4034
 Frc consts  --      0.2806                 0.7330                 0.7058
 IR Inten    --      0.2595                 1.0420                 0.3919

                     10                     11                     12
                      A                      A                      A
 Frequencies --    437.4842               444.5202               448.4282
 Red. masses --      2.1712                 6.1956                 1.3639
 Frc consts  --      0.2448                 0.7213                 0.1616
 IR Inten    --     34.0402                 2.9194                87.1483

                     13                     14                     15
                      A                      A                      A
 Frequencies --    550.8521               558.6518               654.9263
 Red. masses --      6.2723                 4.8532                 6.7939
 Frc consts  --      1.1214                 0.8924                 1.7169
 IR Inten    --      0.8032                 1.8292                13.7564

                     16                     17                     18
                      A                      A                      A
 Frequencies --    702.3261               718.8420               767.0074
 Red. masses --      2.2889                 8.0217                 3.8099
 Frc consts  --      0.6652                 2.4422                 1.3206
 IR Inten    --     11.9022                57.4186                26.4528

                     19                     20                     21
                      A                      A                      A
 Frequencies --    843.9272               853.2240               930.8599
 Red. masses --      1.6145                 7.9469                 1.4510
 Frc consts  --      0.6775                 3.4086                 0.7408
 IR Inten    --      7.6544                19.4135                 3.6949

                     22                     23                     24
                      A                      A                      A
 Frequencies --    939.8370               969.6051               991.0729
 Red. masses --      3.6961                 1.4388                 1.4102
 Frc consts  --      1.9235                 0.7969                 0.8161
 IR Inten    --      5.9586                 1.1974                 4.9571

                     25                     26                     27
                      A                      A                      A
 Frequencies --   1004.2481              1013.1243              1031.9240
 Red. masses --      1.4149                 6.3290                10.3745
 Frc consts  --      0.8407                 3.8275                 6.5090
 IR Inten    --      7.0856                 0.6120               234.8036

                     28                     29                     30
                      A                      A                      A
 Frequencies --   1105.1418              1112.5604              1188.3444
 Red. masses --      1.5175                 1.8071                 1.1319
 Frc consts  --      1.0919                 1.3179                 0.9418
 IR Inten    --      8.7655                38.6067                 0.5503

                     31                     32                     33
                      A                      A                      A
 Frequencies --   1238.7892              1299.2903              1316.1268
 Red. masses --      2.2839                 1.3951                 1.3641
 Frc consts  --      2.0650                 1.3876                 1.3921
 IR Inten    --     11.9865                81.8696                 1.5960

                     34                     35                     36
                      A                      A                      A
 Frequencies --   1359.6614              1395.5565              1440.3571
 Red. masses --      6.6285                14.3878                 1.9995
 Frc consts  --      7.2198                16.5097                 2.4441
 IR Inten    --      3.9351               279.4542                30.0713

                     37                     38                     39
                      A                      A                      A
 Frequencies --   1472.2806              1515.6949              1607.5376
 Red. masses --      1.9867                 2.6747                 6.5932
 Frc consts  --      2.5373                 3.6203                10.0385
 IR Inten    --     10.8267                12.8150                40.3714

                     40                     41                     42
                      A                      A                      A
 Frequencies --   1625.9483              1664.2479              1703.2116
 Red. masses --      8.1545                 8.5968                 6.6662
 Frc consts  --     12.7017                14.0289                11.3938
 IR Inten    --    123.3913                53.2818                 7.1241

                     43                     44                     45
                      A                      A                      A
 Frequencies --   3110.2838              3192.8056              3214.3042
 Red. masses --      1.0888                 1.0878                 1.0931
 Frc consts  --      6.2057                 6.5337                 6.6537
 IR Inten    --     13.2794                 6.1521                 2.3364

                     46                     47                     48
                      A                      A                      A
 Frequencies --   3225.1116              3239.9138              3809.5775
 Red. masses --      1.0904                 1.0924                 1.0676
 Frc consts  --      6.6823                 6.7560                 9.1290
 IR Inten    --      2.5788                 3.3924               135.9105

 - Thermochemistry -
 -------------------
 Temperature   298.150 Kelvin.  Pressure   1.00000 Atm.
 Atom     1 has atomic number  8 and mass  15.99491

 Molecular mass:   166.03784 amu.
 Principal axes and moments of inertia in atomic units:
                           1         2         3
     Eigenvalues --   795.302143859.149004654.45111
           X            0.99997   0.00797  -0.00000
           Y           -0.00797   0.99997  -0.00000
           Z            0.00000   0.00000   1.00000
 This molecule is an asymmetric top.
 Rotational symmetry number  1.
 Warning -- assumption of classical behavior for rotation
           may cause significant error
 Rotational temperatures (Kelvin)      0.10891     0.02244     0.01861
 Rotational constants (GHZ):           2.26925     0.46765     0.38775
 Zero-point vibrational energy     338520.3 (Joules/Mol)
                                   80.90829 (Kcal/Mol)
 Warning -- explicit consideration of  14 degrees of freedom as
           vibrations may cause significant error
 Vibrational temperatures:     75.30   118.81   168.20   233.52   256.57
          (Kelvin)            356.30   454.85   489.32   578.74   629.44
                              639.56   645.19   792.55   803.77   942.29
                             1010.49  1034.25  1103.55  1214.22  1227.60
                             1339.30  1352.21  1395.04  1425.93  1444.89
                             1457.66  1484.71  1590.05  1600.72  1709.76
                             1782.34  1869.39  1893.61  1956.25  2007.89
                             2072.35  2118.28  2180.74  2312.89  2339.37
                             2394.48  2450.54  4475.00  4593.73  4624.66
                             4640.21  4661.51  5481.13

 Zero-point correction=                           0.128936 (Hartree/Particle)
 Thermal correction to Energy=                    0.139030
 Thermal correction to Enthalpy=                  0.139974
 Thermal correction to Gibbs Free Energy=         0.092368
 Sum of electronic and zero-point Energies=           -605.290349
 Sum of electronic and thermal Energies=              -605.280255
 Sum of electronic and thermal Enthalpies=            -605.279311
 Sum of electronic and thermal Free Energies=         -605.326917

                     E (Thermal)             CV                S
                      KCal/Mol        Cal/Mol-Kelvin    Cal/Mol-Kelvin
 Total                   87.243             37.502            100.195
 Electronic               0.000              0.000              0.000
 Translational            0.889              2.981             41.229
 Rotational               0.889              2.981             31.036
 Vibrational             85.465             31.540             27.930
 Vibration     1          0.596              1.977              4.727
 Vibration     2          0.600              1.961              3.829
 Vibration     3          0.608              1.935              3.151
 Vibration     4          0.622              1.889              2.523
 Vibration     5          0.629              1.869              2.346
 Vibration     6          0.661              1.767              1.747
 Vibration     7          0.703              1.643              1.330
 Vibration     8          0.720              1.595              1.212
 Vibration     9          0.768              1.465              0.954
 Vibration    10          0.798              1.388              0.835
 Vibration    11          0.804              1.373              0.813
 Vibration    12          0.807              1.364              0.801
 Vibration    13          0.906              1.138              0.542
 Vibration    14          0.914              1.121              0.527

 Optimization completed.
    -- Stationary point found.
 Normal termination of Gaussian 09 at Fri Aug 27 07:52:56 2021.

 -----------------------------------------------------------------
 #P Geom=AllCheck Guess=TCheck SCRF=Check CCSD(T,E4T,FrzG4)/GTBas1
 -----------------------------------------------------------------

 Structure from the checkpoint file:  "/public/home/users/caep010/.cache/gau_scr/Gau-21003.chk"
 ------
 NUQJEP
 ------
 Charge =  0 Multiplicity = 1

 SCF Done:  E(RHF) =  -601.863297917     A.U. after   14 cycles
 E2 =    -0.1766657816D+01 EUMP2 =    -0.60362995573371D+03
 CCSD(T)
 CCSD(T)= -0.60373939123D+03
 36437\MP4SDQ=-603.6629789\CCSD=-603.6596161\CCSD(T)=-603.7393912\RMSD=
 Normal termination of Gaussian 09 at Fri Aug 27 08:46:09 2021.

 ---------------------------------------------------------
 #P Geom=AllCheck Guess=TCheck SCRF=Check MP4=FrzG4/GTBas2
 ---------------------------------------------------------

 Structure from the checkpoint file:  "/public/home/users/caep010/.cache/gau_scr/Gau-21003.chk"
 ------
 NUQJEP
 ------
 Charge =  0 Multiplicity = 1

 SCF Done:  E(RHF) =  -601.881528160     A.U. after   16 cycles
 E2 =    -0.1790060969D+01 EUMP2 =    -0.60367158912906D+03
 Normal termination of Gaussian 09 at Fri Aug 27 09:06:16 2021.

 ---------------------------------------------------------
 #P Geom=AllCheck Guess=TCheck SCRF=Check MP4=FrzG4/GTBas3
 ---------------------------------------------------------

 Structure from the checkpoint file:  "/public/home/users/caep010/.cache/gau_scr/Gau-21003.chk"
 ------
 NUQJEP
 ------
 Charge =  0 Multiplicity = 1

 SCF Done:  E(RHF) =  -601.924874386     A.U. after   13 cycles
 E2 =    -0.2106611222D+01 EUMP2 =    -0.60403148560778D+03
 Normal termination of Gaussian 09 at Fri Aug 27 11:46:51 2021.

 -----------------------------------------------------------
 #P Geom=AllCheck Guess=TCheck SCRF=Check MP2=Full/GTLargeXP
 -----------------------------------------------------------

 Structure from the checkpoint file:  "/public/home/users/caep010/.cache/gau_scr/Gau-21003.chk"
 ------
 NUQJEP
 ------
 Charge =  0 Multiplicity = 1

 SCF Done:  E(RHF) =  -602.074231534     A.U. after   15 cycles
 E2 =    -0.2764109414D+01 EUMP2 =    -0.60483834094835D+03
 Normal termination of Gaussian 09 at Fri Aug 27 12:03:34 2021.
 SCF Done:  E(RHF) =  -602.123080110     A.U. after   10 cycles
 Normal termination of Gaussian 09 at Fri Aug 27 12:08:49 2021.

                         Standard orientation:
 ---------------------------------------------------------------------
 Center     Atomic      Atomic             Coordinates (Angstroms)
 Number     Number       Type             X           Y           Z
 ---------------------------------------------------------------------
      1          8           0       -4.429915   -0.896588    0.000061
      2          1           0       -5.195989   -0.311467    0.000079
      3          7           0       -3.362652   -0.009850    0.000032
      4          6           0       -2.243082   -0.625577    0.000039
      5          6           0       -0.975723    0.107123   -0.000002
      6          6           0        0.221119   -0.613728    0.000004
      7          1           0        0.230215   -1.696015    0.000035
      8          1           0       -2.209935   -1.716929    0.000070
      9          6           0        1.427882    0.073546   -0.000018
     10          6           0        1.492610    1.460362   -0.000065
     11          7           0        2.683947   -0.699648    0.000014
     12          8           0        2.597937   -1.920831   -0.000278
     13          1           0        2.457211    1.948835   -0.000080
     14          6           0        0.296405    2.175424   -0.000099
     15          1           0        0.320970    3.259423   -0.000153
     16          6           0       -0.922682    1.511509   -0.000057
     17          1           0       -1.852882    2.066991   -0.000070
     18          8           0        3.734752   -0.072119    0.000341
 ---------------------------------------------------------------------

 SCF Done:  E(RHF) =  -602.132401824     A.U. after    7 cycles

 The electronic state is 1-A.
 Alpha  occ. eigenvalues --  -20.61411 -20.60460 -20.60455 -15.85783 -15.64233
 Alpha  occ. eigenvalues --  -11.31650 -11.29857 -11.28374 -11.28246 -11.28163
 Alpha  occ. eigenvalues --  -11.27699 -11.26988  -1.60977  -1.44734  -1.40386
 Alpha  occ. eigenvalues --   -1.21695  -1.17716  -1.09559  -1.06376  -0.96678
 Alpha  occ. eigenvalues --   -0.90095  -0.85545  -0.80992  -0.76214  -0.74530
 Alpha  occ. eigenvalues --   -0.72909  -0.72475  -0.71214  -0.68333  -0.65028
 Alpha  occ. eigenvalues --   -0.64307  -0.61704  -0.61617  -0.56119  -0.55087
 Alpha  occ. eigenvalues --   -0.54278  -0.50092  -0.50035  -0.46528  -0.46077
 Alpha  occ. eigenvalues --   -0.44880  -0.38264  -0.34972
 Alpha virt. eigenvalues --    0.02525   0.03080   0.03812   0.04510   0.05065
 Alpha virt. eigenvalues --    0.05226   0.05982   0.06479   0.07329   0.07379
 Alpha virt. eigenvalues --    0.07696   0.08420   0.08435   0.09344   0.09353

 Mulliken charges:
               1
     1  O   -0.493102
     2  H    0.405423
     3  N   -0.216606
     4  C   -0.068486
     5  C    0.361760
     6  C   -0.331947
     7  H    0.246708
     8  H    0.207061
     9  C    0.137579
    10  C   -0.199220
    11  N    0.531428
    12  O   -0.439154
    13  H    0.261818
    14  C   -0.177453
    15  H    0.225565
    16  C   -0.256423
    17  H    0.238547
    18  O   -0.433498
 Sum of Mulliken charges =  -0.00000

 Dipole moment (field-independent basis, Debye):
    X=             -3.6478    Y=              2.8589    Z=             -0.0001  Tot=              4.6346
 Quadrupole moment (field-independent basis, Debye-Ang):
   XX=            -77.9776   YY=            -65.5533   ZZ=            -70.7356
   XY=              3.9541   XZ=             -0.0013   YZ=             -0.0015

 Normal termination of Gaussian 09 at Fri Aug 27 12:40:54 2021.
