 Gaussian 09, Revision E.01,
 Gaussian 09:  ES64L-G09RevE.01 30-Nov-2015

 ----------------
 #P G4 OPT=calcfc
 ----------------

 ------
 NIPHAZ
 ------
 Symbolic Z-matrix:
 Charge =  0 Multiplicity = 1

 SCF Done:  E(RB3LYP) =  -600.355515804     A.U. after   16 cycles
 SCF Done:  E(RB3LYP) =  -600.377994194     A.U. after   14 cycles
 SCF Done:  E(RB3LYP) =  -600.379497463     A.U. after   14 cycles
 SCF Done:  E(RB3LYP) =  -600.379589509     A.U. after   13 cycles
 SCF Done:  E(RB3LYP) =  -600.379592786     A.U. after   10 cycles
 Optimization completed.
    -- Stationary point found.
 Normal termination of Gaussian 09 at Thu Aug 26 14:43:35 2021.

 ----------------------------------------------------------
 #P Geom=AllCheck Guess=TCheck SCRF=Check B3LYP/GTBas3 Freq
 ----------------------------------------------------------

 Structure from the checkpoint file:  "/public/home/users/caep010/.cache/gau_scr/Gau-7283.chk"
 ------
 NIPHAZ
 ------
 Charge =  0 Multiplicity = 1

 SCF Done:  E(RB3LYP) =  -600.379592786     A.U. after    1 cycles

  Exact polarizability: 177.861 -12.547 101.667  -0.005  -0.000  40.605
 Approx polarizability: 296.052 -41.959 219.058  -0.016   0.010  67.027

                      1                      2                      3
                      A                      A                      A
 Frequencies --     55.0612                73.6278               116.9714
 Red. masses --     12.0912                 6.5412                11.6173
 Frc consts  --      0.0216                 0.0209                 0.0937
 IR Inten    --      0.7554                 0.4658                 1.2786

                      4                      5                      6
                      A                      A                      A
 Frequencies --    131.5119               233.8299               307.9426
 Red. masses --      9.8199                 9.5318                 7.3706
 Frc consts  --      0.1001                 0.3071                 0.4118
 IR Inten    --      2.6538                 2.0903                 0.1496

                      7                      8                      9
                      A                      A                      A
 Frequencies --    336.5125               402.7532               425.9561
 Red. masses --     11.1451                 7.4136                 3.1846
 Frc consts  --      0.7436                 0.7085                 0.3404
 IR Inten    --      0.0142                 1.5951                 0.0009

                     10                     11                     12
                      A                      A                      A
 Frequencies --    508.0866               536.6001               558.1165
 Red. masses --      2.9535                 7.1926                13.6265
 Frc consts  --      0.4492                 1.2202                 2.5008
 IR Inten    --      2.5451                 1.5373                 8.5453

                     13                     14                     15
                      A                      A                      A
 Frequencies --    568.1220               639.0501               707.2853
 Red. masses --      8.5242                 7.2238                 8.9958
 Frc consts  --      1.6210                 1.7381                 2.6514
 IR Inten    --     13.6443                 0.5495                 6.8599

                     16                     17                     18
                      A                      A                      A
 Frequencies --    708.9881               782.6013               819.6892
 Red. masses --      3.7784                 4.6702                 8.0946
 Frc consts  --      1.1190                 1.6853                 3.2044
 IR Inten    --      9.2265                22.6471                12.0993

                     19                     20                     21
                      A                      A                      A
 Frequencies --    844.7826               875.6906               884.4216
 Red. masses --      1.2698                 9.9726                 1.7672
 Frc consts  --      0.5339                 4.5057                 0.8144
 IR Inten    --      0.7346                45.4552                29.3568

                     22                     23                     24
                      A                      A                      A
 Frequencies --    971.0512               998.8634              1023.0014
 Red. masses --      1.3209                 1.3630                 2.7840
 Frc consts  --      0.7338                 0.8012                 1.7166
 IR Inten    --      0.4189                 0.4570                 0.4659

                     25                     26                     27
                      A                      A                      A
 Frequencies --   1126.3767              1127.2372              1159.2899
 Red. masses --      1.8370                 1.6129                 4.4072
 Frc consts  --      1.3732                 1.2075                 3.4898
 IR Inten    --     55.6371                40.0237                13.1746

                     28                     29                     30
                      A                      A                      A
 Frequencies --   1200.1591              1315.6604              1355.1588
 Red. masses --      1.3815                 1.3607                 7.4007
 Frc consts  --      1.1724                 1.3877                 8.0076
 IR Inten    --      9.7397                 3.2175               259.8933

                     31                     32                     33
                      A                      A                      A
 Frequencies --   1368.2857              1393.4401              1447.1802
 Red. masses --      9.4928                12.3951                 3.4414
 Frc consts  --     10.4712                14.1801                 4.2464
 IR Inten    --    302.0821               202.3933                 0.8938

                     34                     35                     36
                      A                      A                      A
 Frequencies --   1519.9667              1602.3689              1632.5204
 Red. masses --      2.4497                 9.7641                 6.0928
 Frc consts  --      3.3345                14.7709                 9.5672
 IR Inten    --     96.8911                71.6218               124.7755

                     37                     38                     39
                      A                      A                      A
 Frequencies --   1654.9401              2258.8019              3192.2883
 Red. masses --     10.2371                13.9828                 1.0897
 Frc consts  --     16.5194                42.0341                 6.5426
 IR Inten    --    154.1011               785.5858                 2.2663

                     40                     41                     42
                      A                      A                      A
 Frequencies --   3212.0447              3237.3650              3238.8231
 Red. masses --      1.0900                 1.0922                 1.0930
 Frc consts  --      6.6256                 6.7440                 6.7552
 IR Inten    --      1.0690                 2.1474                 2.1838

 - Thermochemistry -
 -------------------
 Temperature   298.150 Kelvin.  Pressure   1.00000 Atm.
 Atom     1 has atomic number  6 and mass  12.00000

 Molecular mass:   164.03343 amu.
 Principal axes and moments of inertia in atomic units:
                           1         2         3
     Eigenvalues --   548.040183948.514044496.55414
           X            1.00000  -0.00198   0.00000
           Y            0.00198   1.00000  -0.00002
           Z           -0.00000   0.00002   1.00000
 This molecule is an asymmetric top.
 Rotational symmetry number  1.
 Warning -- assumption of classical behavior for rotation
           may cause significant error
 Rotational temperatures (Kelvin)      0.15804     0.02194     0.01926
 Rotational constants (GHZ):           3.29308     0.45707     0.40136
 Zero-point vibrational energy     278445.3 (Joules/Mol)
                                   66.55003 (Kcal/Mol)
 Warning -- explicit consideration of  13 degrees of freedom as
           vibrations may cause significant error
 Vibrational temperatures:     79.22   105.93   168.30   189.22   336.43
          (Kelvin)            443.06   484.17   579.47   612.86   731.02
                              772.05   803.00   817.40   919.45  1017.62
                             1020.07  1125.99  1179.35  1215.45  1259.92
                             1272.48  1397.12  1437.14  1471.87  1620.60
                             1621.84  1667.96  1726.76  1892.94  1949.77
                             1968.66  2004.85  2082.17  2186.89  2305.45
                             2348.83  2381.09  3249.91  4592.99  4621.41
                             4657.84  4659.94

 Zero-point correction=                           0.106054 (Hartree/Particle)
 Thermal correction to Energy=                    0.115490
 Thermal correction to Enthalpy=                  0.116434
 Thermal correction to Gibbs Free Energy=         0.070055
 Sum of electronic and zero-point Energies=           -600.273539
 Sum of electronic and thermal Energies=              -600.264103
 Sum of electronic and thermal Enthalpies=            -600.263159
 Sum of electronic and thermal Free Energies=         -600.309538

                     E (Thermal)             CV                S
                      KCal/Mol        Cal/Mol-Kelvin    Cal/Mol-Kelvin
 Total                   72.471             34.715             97.613
 Electronic               0.000              0.000              0.000
 Translational            0.889              2.981             41.193
 Rotational               0.889              2.981             30.654
 Vibrational             70.693             28.754             25.766
 Vibration     1          0.596              1.976              4.627
 Vibration     2          0.599              1.966              4.054
 Vibration     3          0.608              1.935              3.150
 Vibration     4          0.612              1.922              2.924
 Vibration     5          0.654              1.789              1.849
 Vibration     6          0.698              1.659              1.373
 Vibration     7          0.717              1.603              1.229
 Vibration     8          0.768              1.464              0.953
 Vibration     9          0.788              1.414              0.872
 Vibration    10          0.863              1.232              0.638
 Vibration    11          0.892              1.169              0.573
 Vibration    12          0.914              1.122              0.528
 Vibration    13          0.924              1.100              0.508

 Optimization completed.
    -- Stationary point found.
 Normal termination of Gaussian 09 at Thu Aug 26 14:45:30 2021.

 -----------------------------------------------------------------
 #P Geom=AllCheck Guess=TCheck SCRF=Check CCSD(T,E4T,FrzG4)/GTBas1
 -----------------------------------------------------------------

 Structure from the checkpoint file:  "/public/home/users/caep010/.cache/gau_scr/Gau-7283.chk"
 ------
 NIPHAZ
 ------
 Charge =  0 Multiplicity = 1

 SCF Done:  E(RHF) =  -596.850442334     A.U. after   17 cycles
 E2 =    -0.1800573453D+01 EUMP2 =    -0.59865101578738D+03
 CCSD(T)
 CCSD(T)= -0.59874149984D+03
 8.7665839\MP4SDQ=-598.6602676\CCSD=-598.6533028\CCSD(T)=-598.7414998\R
 Normal termination of Gaussian 09 at Thu Aug 26 15:30:06 2021.

 ---------------------------------------------------------
 #P Geom=AllCheck Guess=TCheck SCRF=Check MP4=FrzG4/GTBas2
 ---------------------------------------------------------

 Structure from the checkpoint file:  "/public/home/users/caep010/.cache/gau_scr/Gau-7283.chk"
 ------
 NIPHAZ
 ------
 Charge =  0 Multiplicity = 1

 SCF Done:  E(RHF) =  -596.866869815     A.U. after   17 cycles
 E2 =    -0.1820998097D+01 EUMP2 =    -0.59868786791189D+03
 Normal termination of Gaussian 09 at Thu Aug 26 15:47:22 2021.

 ---------------------------------------------------------
 #P Geom=AllCheck Guess=TCheck SCRF=Check MP4=FrzG4/GTBas3
 ---------------------------------------------------------

 Structure from the checkpoint file:  "/public/home/users/caep010/.cache/gau_scr/Gau-7283.chk"
 ------
 NIPHAZ
 ------
 Charge =  0 Multiplicity = 1

 SCF Done:  E(RHF) =  -596.909884113     A.U. after   14 cycles
 E2 =    -0.2119588765D+01 EUMP2 =    -0.59902947287746D+03
 Normal termination of Gaussian 09 at Thu Aug 26 17:51:40 2021.

 -----------------------------------------------------------
 #P Geom=AllCheck Guess=TCheck SCRF=Check MP2=Full/GTLargeXP
 -----------------------------------------------------------

 Structure from the checkpoint file:  "/public/home/users/caep010/.cache/gau_scr/Gau-7283.chk"
 ------
 NIPHAZ
 ------
 Charge =  0 Multiplicity = 1

 SCF Done:  E(RHF) =  -597.054348051     A.U. after   15 cycles
 E2 =    -0.2770720959D+01 EUMP2 =    -0.59982506900983D+03
 Normal termination of Gaussian 09 at Thu Aug 26 18:06:00 2021.
 SCF Done:  E(RHF) =  -597.102358689     A.U. after   11 cycles
 Normal termination of Gaussian 09 at Thu Aug 26 18:11:19 2021.

                         Standard orientation:
 ---------------------------------------------------------------------
 Center     Atomic      Atomic             Coordinates (Angstroms)
 Number     Number       Type             X           Y           Z
 ---------------------------------------------------------------------
      1          6           0       -1.375161    0.002195    0.000129
      2          6           0       -0.900055    1.310655   -0.000093
      3          6           0       -0.511912   -1.088835    0.000287
      4          6           0        0.856346   -0.867972    0.000309
      5          6           0        0.467195    1.530200   -0.000032
      6          6           0        1.350792    0.443754    0.000152
      7          7           0        2.723455    0.766348    0.000401
      8          1           0       -1.606033    2.129929   -0.000259
      9          1           0        0.871396    2.534973   -0.000203
     10          7           0        3.545609   -0.157215   -0.000172
     11          7           0        4.402586   -0.897568   -0.000516
     12          1           0        1.538312   -1.711081    0.000640
     13          1           0       -0.922977   -2.089235    0.000519
     14          7           0       -2.823626   -0.233407   -0.000052
     15          8           0       -3.557870    0.747378   -0.000133
     16          8           0       -3.209642   -1.396336   -0.000222
 ---------------------------------------------------------------------

 SCF Done:  E(RHF) =  -597.111146958     A.U. after    7 cycles

 The electronic state is 1-A.
 Alpha  occ. eigenvalues --  -20.60068 -20.60045 -15.85480 -15.81795 -15.70998
 Alpha  occ. eigenvalues --  -15.64494 -11.33473 -11.31013 -11.28649 -11.28414
 Alpha  occ. eigenvalues --  -11.27314 -11.26824  -1.60560  -1.54181  -1.39958
 Alpha  occ. eigenvalues --   -1.33811  -1.20649  -1.10598  -1.06468  -0.98824
 Alpha  occ. eigenvalues --   -0.89015  -0.86635  -0.79726  -0.78518  -0.74736
 Alpha  occ. eigenvalues --   -0.73908  -0.72742  -0.72153  -0.70869  -0.66781
 Alpha  occ. eigenvalues --   -0.65504  -0.63352  -0.61614  -0.56171  -0.54619
 Alpha  occ. eigenvalues --   -0.49906  -0.49777  -0.48307  -0.46910  -0.45776
 Alpha  occ. eigenvalues --   -0.38261  -0.34651
 Alpha virt. eigenvalues --    0.02687   0.03220   0.03612   0.04312   0.05545
 Alpha virt. eigenvalues --    0.05827   0.06137   0.07212   0.07425   0.07797
 Alpha virt. eigenvalues --    0.07923   0.07966   0.08964   0.09206   0.09390

 Mulliken charges:
               1
     1  C    0.112737
     2  C   -0.179089
     3  C   -0.190912
     4  C   -0.263728
     5  C   -0.243912
     6  C    0.293891
     7  N   -0.491498
     8  H    0.268552
     9  H    0.234415
    10  N    0.590873
    11  N   -0.252212
    12  H    0.210140
    13  H    0.264768
    14  N    0.521184
    15  O   -0.436145
    16  O   -0.439064
 Sum of Mulliken charges =  -0.00000

 Dipole moment (field-independent basis, Debye):
    X=              4.3571    Y=              0.2175    Z=              0.0003  Tot=              4.3625
 Quadrupole moment (field-independent basis, Debye-Ang):
   XX=            -87.4201   YY=            -65.0416   ZZ=            -68.9129
   XY=             -3.4783   XZ=             -0.0020   YZ=             -0.0038

 Normal termination of Gaussian 09 at Thu Aug 26 18:41:58 2021.
