 Gaussian 09, Revision E.01,
 Gaussian 09:  ES64L-G09RevE.01 30-Nov-2015

 ----------------
 #P G4 OPT=calcfc
 ----------------

 ------
 NMBZAX
 ------
 Symbolic Z-matrix:
 Charge =  0 Multiplicity = 1

 SCF Done:  E(RB3LYP) =  -644.680649676     A.U. after   16 cycles
 SCF Done:  E(RB3LYP) =  -644.721859283     A.U. after   14 cycles
 SCF Done:  E(RB3LYP) =  -644.727812869     A.U. after   16 cycles
 SCF Done:  E(RB3LYP) =  -644.727939121     A.U. after   13 cycles
 SCF Done:  E(RB3LYP) =  -644.727941276     A.U. after    9 cycles
 Optimization completed.
    -- Stationary point found.
 Normal termination of Gaussian 09 at Fri Aug 27 07:29:58 2021.

 ----------------------------------------------------------
 #P Geom=AllCheck Guess=TCheck SCRF=Check B3LYP/GTBas3 Freq
 ----------------------------------------------------------

 Structure from the checkpoint file:  "/public/home/users/caep010/.cache/gau_scr/Gau-154692.chk"
 ------
 NMBZAX
 ------
 Charge =  0 Multiplicity = 1

 SCF Done:  E(RB3LYP) =  -644.727941276     A.U. after    1 cycles

  Exact polarizability: 220.814  -7.069 117.336   0.000   0.001  50.877
 Approx polarizability: 346.209 -40.577 252.606  -0.000  -0.002  82.993

                      1                      2                      3
                      A                      A                      A
 Frequencies --     52.7861                63.1883                84.8740
 Red. masses --      7.9357                 5.5870                 4.5085
 Frc consts  --      0.0130                 0.0131                 0.0191
 IR Inten    --      2.0010                 0.9043                 4.4787

                      4                      5                      6
                      A                      A                      A
 Frequencies --    132.2457               133.8779               178.9903
 Red. masses --      6.3514                 1.3554                 2.6115
 Frc consts  --      0.0654                 0.0143                 0.0493
 IR Inten    --      1.7853                 2.2970                 0.8988

                      7                      8                      9
                      A                      A                      A
 Frequencies --    245.9363               290.3628               332.8369
 Red. masses --      8.7949                 5.5899                 4.5033
 Frc consts  --      0.3134                 0.2777                 0.2939
 IR Inten    --      4.1047                 3.6902                 1.0042

                     10                     11                     12
                      A                      A                      A
 Frequencies --    361.0430               424.2227               458.5084
 Red. masses --      5.8753                 3.1746                 4.9547
 Frc consts  --      0.4512                 0.3366                 0.6137
 IR Inten    --      6.1698                 0.0021                 6.9086

                     13                     14                     15
                      A                      A                      A
 Frequencies --    502.6065               533.2530               575.4495
 Red. masses --      3.1168                 7.5528                 4.6688
 Frc consts  --      0.4639                 1.2654                 0.9109
 IR Inten    --      4.7644                 1.4467                 9.7632

                     16                     17                     18
                      A                      A                      A
 Frequencies --    615.8943               640.6832               705.3060
 Red. masses --      4.4267                 7.0466                 6.6000
 Frc consts  --      0.9893                 1.7042                 1.9344
 IR Inten    --      0.2868                 0.2977                10.3995

                     19                     20                     21
                      A                      A                      A
 Frequencies --    714.3983               772.1662               795.0184
 Red. masses --      3.7840                 1.6180                 2.3061
 Frc consts  --      1.1378                 0.5684                 0.8588
 IR Inten    --     15.1956                 1.2633                20.7720

                     22                     23                     24
                      A                      A                      A
 Frequencies --    849.3245               856.7913               883.1807
 Red. masses --      6.3237                 1.2825                 6.5982
 Frc consts  --      2.6876                 0.5547                 3.0323
 IR Inten    --     19.1631                 2.9618                30.8592

                     25                     26                     27
                      A                      A                      A
 Frequencies --    888.9917               970.4030               980.2764
 Red. masses --      1.7564                 1.3217                 6.3254
 Frc consts  --      0.8178                 0.7333                 3.5813
 IR Inten    --     27.2762                 0.3117                14.7099

                     28                     29                     30
                      A                      A                      A
 Frequencies --   1002.5774              1023.5884              1099.5596
 Red. masses --      1.3347                 2.8595                 1.4605
 Frc consts  --      0.7904                 1.7652                 1.0404
 IR Inten    --      0.3214                 0.4741                 1.1476

                     31                     32                     33
                      A                      A                      A
 Frequencies --   1123.2885              1131.5463              1141.7980
 Red. masses --      2.5888                 1.3259                 1.4103
 Frc consts  --      1.9246                 1.0002                 1.0833
 IR Inten    --     77.9974                14.2771                 0.2336

                     34                     35                     36
                      A                      A                      A
 Frequencies --   1201.6334              1226.7314              1251.8590
 Red. masses --      1.3292                 2.3090                 2.9954
 Frc consts  --      1.1308                 2.0473                 2.7658
 IR Inten    --     11.0258                75.8700                 5.0130

                     37                     38                     39
                      A                      A                      A
 Frequencies --   1326.0714              1366.0551              1386.0762
 Red. masses --      1.3295                 8.2008                13.6406
 Frc consts  --      1.3775                 9.0166                15.4404
 IR Inten    --      0.7217                12.6101               546.5749

                     40                     41                     42
                      A                      A                      A
 Frequencies --   1428.0073              1435.6591              1465.3034
 Red. masses --      1.3874                 2.4716                 1.0429
 Frc consts  --      1.6669                 3.0015                 1.3193
 IR Inten    --      3.1698                13.2164                 8.3029

                     43                     44                     45
                      A                      A                      A
 Frequencies --   1472.1869              1512.1428              1519.4948
 Red. masses --      1.2968                 1.7580                 2.1652
 Frc consts  --      1.6560                 2.3684                 2.9454
 IR Inten    --     65.3276                17.3337                 4.2436

                     46                     47                     48
                      A                      A                      A
 Frequencies --   1591.6558              1621.5034              1643.6375
 Red. masses --      8.4151                 5.5755                 6.4119
 Frc consts  --     12.5605                 8.6371                10.2059
 IR Inten    --    110.0595               142.0559                30.0314

                     49                     50                     51
                      A                      A                      A
 Frequencies --   1649.2567              3069.4181              3156.8232
 Red. masses --     10.4439                 1.0301                 1.1046
 Frc consts  --     16.7375                 5.7179                 6.4858
 IR Inten    --    149.3998                20.8787                 2.8483

                     52                     53                     54
                      A                      A                      A
 Frequencies --   3170.1174              3179.8374              3221.5490
 Red. masses --      1.1068                 1.0892                 1.0895
 Frc consts  --      6.5533                 6.4888                 6.6620
 IR Inten    --      5.9899                 7.4726                 7.8736

                     55                     56                     57
                      A                      A                      A
 Frequencies --   3232.6388              3236.7078              3259.3562
 Red. masses --      1.0899                 1.0922                 1.0922
 Frc consts  --      6.7103                 6.7415                 6.8360
 IR Inten    --      1.4128                 1.1928                 3.6778

 - Thermochemistry -
 -------------------
 Temperature   298.150 Kelvin.  Pressure   1.00000 Atm.
 Atom     1 has atomic number  6 and mass  12.00000

 Molecular mass:   180.05349 amu.
 Principal axes and moments of inertia in atomic units:
                           1         2         3
     Eigenvalues --   637.534055210.089595836.26730
           X            0.99998   0.00650   0.00000
           Y           -0.00650   0.99998   0.00001
           Z           -0.00000  -0.00001   1.00000
 This molecule is an asymmetric top.
 Rotational symmetry number  1.
 Warning -- assumption of classical behavior for rotation
           may cause significant error
 Rotational temperatures (Kelvin)      0.13586     0.01662     0.01484
 Rotational constants (GHZ):           2.83082     0.34639     0.30923
 Zero-point vibrational energy     413840.3 (Joules/Mol)
                                   98.91021 (Kcal/Mol)
 Warning -- explicit consideration of  16 degrees of freedom as
           vibrations may cause significant error
 Vibrational temperatures:     75.95    90.91   122.11   190.27   192.62
          (Kelvin)            257.53   353.85   417.77   478.88   519.46
                              610.36   659.69   723.14   767.23   827.94
                              886.13   921.80  1014.78  1027.86  1110.97
                             1143.85  1221.99  1232.73  1270.70  1279.06
                             1396.19  1410.40  1442.48  1472.71  1582.02
                             1616.16  1628.04  1642.79  1728.88  1764.99
                             1801.14  1907.92  1965.45  1994.25  2054.58
                             2065.59  2108.24  2118.15  2175.63  2186.21
                             2290.03  2332.98  2364.82  2372.91  4416.20
                             4541.96  4561.09  4575.07  4635.08  4651.04
                             4656.89  4689.48

 Zero-point correction=                           0.157623 (Hartree/Particle)
 Thermal correction to Energy=                    0.168868
 Thermal correction to Enthalpy=                  0.169812
 Thermal correction to Gibbs Free Energy=         0.119388
 Sum of electronic and zero-point Energies=           -644.570318
 Sum of electronic and thermal Energies=              -644.559073
 Sum of electronic and thermal Enthalpies=            -644.558129
 Sum of electronic and thermal Free Energies=         -644.608553

                     E (Thermal)             CV                S
                      KCal/Mol        Cal/Mol-Kelvin    Cal/Mol-Kelvin
 Total                  105.966             41.762            106.127
 Electronic               0.000              0.000              0.000
 Translational            0.889              2.981             41.471
 Rotational               0.889              2.981             31.339
 Vibrational            104.189             35.801             33.317
 Vibration     1          0.596              1.976              4.710
 Vibration     2          0.597              1.972              4.355
 Vibration     3          0.601              1.960              3.775
 Vibration     4          0.612              1.921              2.913
 Vibration     5          0.613              1.920              2.890
 Vibration     6          0.629              1.868              2.339
 Vibration     7          0.660              1.770              1.760
 Vibration     8          0.686              1.692              1.472
 Vibration     9          0.715              1.610              1.246
 Vibration    10          0.735              1.553              1.118
 Vibration    11          0.786              1.418              0.878
 Vibration    12          0.817              1.342              0.770
 Vibration    13          0.858              1.244              0.652
 Vibration    14          0.888              1.176              0.580
 Vibration    15          0.932              1.084              0.494
 Vibration    16          0.975              0.998              0.423

 Optimization completed.
    -- Stationary point found.
 Normal termination of Gaussian 09 at Fri Aug 27 07:32:53 2021.

 -----------------------------------------------------------------
 #P Geom=AllCheck Guess=TCheck SCRF=Check CCSD(T,E4T,FrzG4)/GTBas1
 -----------------------------------------------------------------

 Structure from the checkpoint file:  "/public/home/users/caep010/.cache/gau_scr/Gau-154692.chk"
 ------
 NMBZAX
 ------
 Charge =  0 Multiplicity = 1

 SCF Done:  E(RHF) =  -640.871451809     A.U. after   16 cycles
 E2 =    -0.1918015538D+01 EUMP2 =    -0.64278946734703D+03
 CCSD(T)
 CCSD(T)= -0.64290851887D+03
 9279109\MP4SDQ=-642.8250737\CCSD=-642.8196291\CCSD(T)=-642.9085189\RMS
 Normal termination of Gaussian 09 at Fri Aug 27 09:06:30 2021.

 ---------------------------------------------------------
 #P Geom=AllCheck Guess=TCheck SCRF=Check MP4=FrzG4/GTBas2
 ---------------------------------------------------------

 Structure from the checkpoint file:  "/public/home/users/caep010/.cache/gau_scr/Gau-154692.chk"
 ------
 NMBZAX
 ------
 Charge =  0 Multiplicity = 1

 SCF Done:  E(RHF) =  -640.891917200     A.U. after   17 cycles
 E2 =    -0.1941808944D+01 EUMP2 =    -0.64283372614309D+03
 Normal termination of Gaussian 09 at Fri Aug 27 09:40:28 2021.

 ---------------------------------------------------------
 #P Geom=AllCheck Guess=TCheck SCRF=Check MP4=FrzG4/GTBas3
 ---------------------------------------------------------

 Structure from the checkpoint file:  "/public/home/users/caep010/.cache/gau_scr/Gau-154692.chk"
 ------
 NMBZAX
 ------
 Charge =  0 Multiplicity = 1

 SCF Done:  E(RHF) =  -640.935460291     A.U. after   13 cycles
 E2 =    -0.2291948178D+01 EUMP2 =    -0.64322740846957D+03
 Normal termination of Gaussian 09 at Fri Aug 27 13:19:12 2021.

 -----------------------------------------------------------
 #P Geom=AllCheck Guess=TCheck SCRF=Check MP2=Full/GTLargeXP
 -----------------------------------------------------------

 Structure from the checkpoint file:  "/public/home/users/caep010/.cache/gau_scr/Gau-154692.chk"
 ------
 NMBZAX
 ------
 Charge =  0 Multiplicity = 1

 SCF Done:  E(RHF) =  -641.093676162     A.U. after   15 cycles
 E2 =    -0.3001105135D+01 EUMP2 =    -0.64409478129743D+03
 Normal termination of Gaussian 09 at Fri Aug 27 13:32:37 2021.
 SCF Done:  E(RHF) =  -641.144982353     A.U. after   10 cycles
 Normal termination of Gaussian 09 at Fri Aug 27 13:39:33 2021.

                         Standard orientation:
 ---------------------------------------------------------------------
 Center     Atomic      Atomic             Coordinates (Angstroms)
 Number     Number       Type             X           Y           Z
 ---------------------------------------------------------------------
      1          6           0        0.863194    0.408131   -0.000089
      2          6           0        0.321710   -0.894602   -0.000336
      3          6           0       -1.052926   -1.079980   -0.000311
      4          6           0       -1.894004    0.027239   -0.000073
      5          6           0        2.276076    0.707697    0.000009
      6          6           0       -1.393021    1.326628   -0.000030
      7          1           0       -2.080861    2.161065   -0.000036
      8          6           0       -0.022531    1.507769   -0.000043
      9          1           0        0.993935   -1.739070   -0.000521
     10          1           0        0.380205    2.515639   -0.000022
     11          1           0       -1.485814   -2.071318   -0.000500
     12          7           0        3.264146   -0.164891    0.000110
     13          6           0        4.661608    0.322229    0.000191
     14          1           0        5.147251   -0.084385   -0.888119
     15          1           0        4.704317    1.410936    0.000428
     16          8           0        3.154700   -1.423616    0.000022
     17          1           0        5.147273   -0.084799    0.888224
     18          1           0        2.581167    1.744906    0.000042
     19          7           0       -3.348721   -0.174879    0.000059
     20          8           0       -4.060782    0.823217   -0.000043
     21          8           0       -3.763431   -1.327757    0.000447
 ---------------------------------------------------------------------

 SCF Done:  E(RHF) =  -641.154893125     A.U. after    7 cycles

 The electronic state is 1-A.
 Alpha  occ. eigenvalues --  -20.60049 -20.60002 -20.53632 -15.85342 -15.74472
 Alpha  occ. eigenvalues --  -11.31285 -11.31118 -11.29686 -11.28979 -11.27604
 Alpha  occ. eigenvalues --  -11.27298 -11.27272 -11.26106  -1.60442  -1.47146
 Alpha  occ. eigenvalues --   -1.39824  -1.20862  -1.17804  -1.10741  -1.05517
 Alpha  occ. eigenvalues --   -1.02853  -0.96334  -0.87443  -0.85330  -0.80342
 Alpha  occ. eigenvalues --   -0.78171  -0.73973  -0.72337  -0.71993  -0.71903
 Alpha  occ. eigenvalues --   -0.68333  -0.65574  -0.64948  -0.62731  -0.62334
 Alpha  occ. eigenvalues --   -0.60323  -0.56807  -0.56305  -0.53726  -0.53043
 Alpha  occ. eigenvalues --   -0.49826  -0.49561  -0.45590  -0.43912  -0.42045
 Alpha  occ. eigenvalues --   -0.37151  -0.32742
 Alpha virt. eigenvalues --    0.01356   0.02034   0.03128   0.03956   0.04660
 Alpha virt. eigenvalues --    0.05110   0.05719   0.06298   0.06620   0.07410
 Alpha virt. eigenvalues --    0.07618   0.07770   0.08576   0.08625   0.09287

 Mulliken charges:
               1
     1  C    0.392713
     2  C   -0.300571
     3  C   -0.169477
     4  C    0.049897
     5  C   -0.235341
     6  C   -0.182097
     7  H    0.265643
     8  C   -0.269964
     9  H    0.283717
    10  H    0.198309
    11  H    0.271123
    12  N    0.323716
    13  C   -0.499940
    14  H    0.219420
    15  H    0.196873
    16  O   -0.630050
    17  H    0.219447
    18  H    0.207864
    19  N    0.528334
    20  O   -0.434586
    21  O   -0.435031
 Sum of Mulliken charges =  -0.00000

 Dipole moment (field-independent basis, Debye):
    X=              6.0729    Y=              4.3841    Z=             -0.0007  Tot=              7.4900
 Quadrupole moment (field-independent basis, Debye-Ang):
   XX=            -84.7306   YY=            -74.4175   ZZ=            -76.8440
   XY=             11.0117   XZ=              0.0033   YZ=              0.0025

 Normal termination of Gaussian 09 at Fri Aug 27 14:21:03 2021.
