 Gaussian 09, Revision E.01,
 Gaussian 09:  ES64L-G09RevE.01 30-Nov-2015

 ----------------
 #P G4 OPT=calcfc
 ----------------

 ------
 OXISEV
 ------
 Symbolic Z-matrix:
 Charge =  0 Multiplicity = 1

 SCF Done:  E(RB3LYP) =  -524.099687143     A.U. after   15 cycles
 SCF Done:  E(RB3LYP) =  -524.158352384     A.U. after   13 cycles
 SCF Done:  E(RB3LYP) =  -524.169607239     A.U. after   14 cycles
 SCF Done:  E(RB3LYP) =  -524.170425154     A.U. after   13 cycles
 SCF Done:  E(RB3LYP) =  -524.170465638     A.U. after   12 cycles
 SCF Done:  E(RB3LYP) =  -524.170470923     A.U. after    9 cycles
 Optimization completed.
    -- Stationary point found.
 Normal termination of Gaussian 09 at Thu Aug 26 15:07:29 2021.

 ----------------------------------------------------------
 #P Geom=AllCheck Guess=TCheck SCRF=Check B3LYP/GTBas3 Freq
 ----------------------------------------------------------

 Structure from the checkpoint file:  "/public/home/users/caep010/.cache/gau_scr/Gau-134156.chk"
 ------
 OXISEV
 ------
 Charge =  0 Multiplicity = 1

 SCF Done:  E(RB3LYP) =  -524.170470923     A.U. after    1 cycles

  Exact polarizability: 113.951  -9.924  85.481  -0.003   0.001  34.726
 Approx polarizability: 168.974 -30.117 169.714   0.000  -0.004  56.687

                      1                      2                      3
                      A                      A                      A
 Frequencies --     38.4243               106.0651               150.4120
 Red. masses --     10.2504                 3.7544                 5.0978
 Frc consts  --      0.0089                 0.0249                 0.0680
 IR Inten    --      0.0398                 0.0103                 0.1565

                      4                      5                      6
                      A                      A                      A
 Frequencies --    165.8646               282.6442               299.1865
 Red. masses --      3.3624                 5.7016                 3.4891
 Frc consts  --      0.0545                 0.2684                 0.1840
 IR Inten    --      0.3168                 0.4100                 0.2827

                      7                      8                      9
                      A                      A                      A
 Frequencies --    421.2755               495.3043               550.7790
 Red. masses --     10.0384                 3.9137                 7.7042
 Frc consts  --      1.0497                 0.5657                 1.3770
 IR Inten    --      1.2318                 0.3195                 0.0498

                     10                     11                     12
                      A                      A                      A
 Frequencies --    631.5918               670.3599               716.5249
 Red. masses --      2.6733                 7.5772                 3.4358
 Frc consts  --      0.6283                 2.0062                 1.0393
 IR Inten    --      2.1087                26.6377                12.0040

                     13                     14                     15
                      A                      A                      A
 Frequencies --    735.9058               810.3362               850.2327
 Red. masses --      2.3124                12.5967                13.8139
 Frc consts  --      0.7378                 4.8734                 5.8836
 IR Inten    --      2.3837                 0.1038                76.0703

                     16                     17                     18
                      A                      A                      A
 Frequencies --    864.3398               945.1708               993.8437
 Red. masses --      1.4410                 1.3835                 1.0683
 Frc consts  --      0.6343                 0.7282                 0.6217
 IR Inten    --     10.1626                25.3834                26.5172

                     19                     20                     21
                      A                      A                      A
 Frequencies --   1018.5425              1038.6710              1065.6625
 Red. masses --      3.5511                 5.3821                 2.5629
 Frc consts  --      2.1705                 3.4210                 1.7148
 IR Inten    --      6.5794                36.3287                 8.5653

                     22                     23                     24
                      A                      A                      A
 Frequencies --   1220.3786              1292.3875              1348.4648
 Red. masses --      1.4738                 3.9080                 3.0647
 Frc consts  --      1.2932                 3.8458                 3.2834
 IR Inten    --     26.7906                35.4130                41.5353

                     25                     26                     27
                      A                      A                      A
 Frequencies --   1359.7792              1379.0347              1416.4444
 Red. masses --      2.4342                 3.4852                 4.0986
 Frc consts  --      2.6518                 3.9050                 4.8449
 IR Inten    --    100.7246                36.2845                41.8266

                     28                     29                     30
                      A                      A                      A
 Frequencies --   1449.5420              1457.8009              1548.2382
 Red. masses --      6.7463                 1.7720                 6.3127
 Frc consts  --      8.3517                 2.2187                 8.9154
 IR Inten    --     69.3791                 4.1830                67.3432

                     31                     32                     33
                      A                      A                      A
 Frequencies --   1660.1778              1720.2527              3181.1994
 Red. masses --     14.4316                 4.9781                 1.0586
 Frc consts  --     23.4355                 8.6796                 6.3117
 IR Inten    --    198.7114                39.0100                 1.1640

                     34                     35                     36
                      A                      A                      A
 Frequencies --   3217.0103              3258.4434              3278.3674
 Red. masses --      1.0948                 1.0987                 1.1171
 Frc consts  --      6.6755                 6.8732                 7.0742
 IR Inten    --      3.3569                 1.1939                 1.0055

 - Thermochemistry -
 -------------------
 Temperature   298.150 Kelvin.  Pressure   1.00000 Atm.
 Atom     1 has atomic number  7 and mass  14.00307

 Molecular mass:   140.03343 amu.
 Principal axes and moments of inertia in atomic units:
                           1         2         3
     Eigenvalues --   530.142492012.750262542.89268
           X            0.99994  -0.01104  -0.00000
           Y            0.01104   0.99994   0.00001
           Z            0.00000  -0.00001   1.00000
 This molecule is an asymmetric top.
 Rotational symmetry number  1.
 Warning -- assumption of classical behavior for rotation
           may cause significant error
 Rotational temperatures (Kelvin)      0.16338     0.04303     0.03406
 Rotational constants (GHZ):           3.40426     0.89665     0.70972
 Zero-point vibrational energy     249054.5 (Joules/Mol)
                                   59.52545 (Kcal/Mol)
 Warning -- explicit consideration of   9 degrees of freedom as
           vibrations may cause significant error
 Vibrational temperatures:     55.28   152.60   216.41   238.64   406.66
          (Kelvin)            430.46   606.12   712.63   792.45   908.72
                              964.50  1030.92  1058.80  1165.89  1223.29
                             1243.59  1359.89  1429.92  1465.45  1494.41
                             1533.25  1755.85  1859.46  1940.14  1956.42
                             1984.12  2037.95  2085.56  2097.45  2227.57
                             2388.62  2475.06  4577.03  4628.55  4688.17
                             4716.83

 Zero-point correction=                           0.094860 (Hartree/Particle)
 Thermal correction to Energy=                    0.103037
 Thermal correction to Enthalpy=                  0.103982
 Thermal correction to Gibbs Free Energy=         0.060533
 Sum of electronic and zero-point Energies=           -524.075611
 Sum of electronic and thermal Energies=              -524.067434
 Sum of electronic and thermal Enthalpies=            -524.066489
 Sum of electronic and thermal Free Energies=         -524.109938

                     E (Thermal)             CV                S
                      KCal/Mol        Cal/Mol-Kelvin    Cal/Mol-Kelvin
 Total                   64.657             28.997             91.445
 Electronic               0.000              0.000              0.000
 Translational            0.889              2.981             40.722
 Rotational               0.889              2.981             29.385
 Vibrational             62.879             23.035             21.337
 Vibration     1          0.594              1.982              5.339
 Vibration     2          0.605              1.944              3.340
 Vibration     3          0.618              1.902              2.667
 Vibration     4          0.624              1.884              2.482
 Vibration     5          0.682              1.706              1.518
 Vibration     6          0.692              1.675              1.421
 Vibration     7          0.784              1.424              0.888
 Vibration     8          0.851              1.260              0.670
 Vibration     9          0.906              1.138              0.543

 Optimization completed.
    -- Stationary point found.
 Normal termination of Gaussian 09 at Thu Aug 26 15:08:41 2021.

 -----------------------------------------------------------------
 #P Geom=AllCheck Guess=TCheck SCRF=Check CCSD(T,E4T,FrzG4)/GTBas1
 -----------------------------------------------------------------

 Structure from the checkpoint file:  "/public/home/users/caep010/.cache/gau_scr/Gau-134156.chk"
 ------
 OXISEV
 ------
 Charge =  0 Multiplicity = 1

 SCF Done:  E(RHF) =  -521.133559073     A.U. after   15 cycles
 E2 =    -0.1537150298D+01 EUMP2 =    -0.52267070937171D+03
 CCSD(T)
 CCSD(T)= -0.52275225387D+03
 -522.6824554\CCSD(T)=-522.7522539\RMSD=5.699e-09\PG=C01 [X(C4H4N4O2)]\
 Normal termination of Gaussian 09 at Thu Aug 26 15:23:28 2021.

 ---------------------------------------------------------
 #P Geom=AllCheck Guess=TCheck SCRF=Check MP4=FrzG4/GTBas2
 ---------------------------------------------------------

 Structure from the checkpoint file:  "/public/home/users/caep010/.cache/gau_scr/Gau-134156.chk"
 ------
 OXISEV
 ------
 Charge =  0 Multiplicity = 1

 SCF Done:  E(RHF) =  -521.148470110     A.U. after   13 cycles
 E2 =    -0.1556224544D+01 EUMP2 =    -0.52270469465448D+03
 Normal termination of Gaussian 09 at Thu Aug 26 15:30:17 2021.

 ---------------------------------------------------------
 #P Geom=AllCheck Guess=TCheck SCRF=Check MP4=FrzG4/GTBas3
 ---------------------------------------------------------

 Structure from the checkpoint file:  "/public/home/users/caep010/.cache/gau_scr/Gau-134156.chk"
 ------
 OXISEV
 ------
 Charge =  0 Multiplicity = 1

 SCF Done:  E(RHF) =  -521.186778960     A.U. after   13 cycles
 E2 =    -0.1819886375D+01 EUMP2 =    -0.52300666533465D+03
 Normal termination of Gaussian 09 at Thu Aug 26 16:10:46 2021.

 -----------------------------------------------------------
 #P Geom=AllCheck Guess=TCheck SCRF=Check MP2=Full/GTLargeXP
 -----------------------------------------------------------

 Structure from the checkpoint file:  "/public/home/users/caep010/.cache/gau_scr/Gau-134156.chk"
 ------
 OXISEV
 ------
 Charge =  0 Multiplicity = 1

 SCF Done:  E(RHF) =  -521.317704357     A.U. after   13 cycles
 E2 =    -0.2372067146D+01 EUMP2 =    -0.52368977150336D+03
 Normal termination of Gaussian 09 at Thu Aug 26 16:18:22 2021.
 SCF Done:  E(RHF) =  -521.358601219     A.U. after    9 cycles
 Normal termination of Gaussian 09 at Thu Aug 26 16:25:45 2021.

                         Standard orientation:
 ---------------------------------------------------------------------
 Center     Atomic      Atomic             Coordinates (Angstroms)
 Number     Number       Type             X           Y           Z
 ---------------------------------------------------------------------
      1          7           0        1.338162    0.361416    0.000197
      2          7           0        0.357354   -0.565326    0.000187
      3          6           0       -0.720341    0.194519    0.000055
      4          7           0       -0.526504    1.531130    0.000011
      5          7           0       -2.055654   -0.403371   -0.000050
      6          8           0       -2.998910    0.369362   -0.000466
      7          8           0       -2.111723   -1.622976    0.000342
      8          6           0        0.786889    1.606823    0.000103
      9          1           0        1.380014    2.509450    0.000102
     10          6           0        2.706786    0.023253    0.000066
     11          1           0        3.344052    0.898977    0.000392
     12          6           0        3.165981   -1.220640   -0.000409
     13          1           0        2.497931   -2.072212   -0.000009
     14          1           0        4.233664   -1.397971   -0.000795
 ---------------------------------------------------------------------

 SCF Done:  E(RHF) =  -521.366509317     A.U. after    7 cycles

 The electronic state is 1-A.
 Alpha  occ. eigenvalues --  -20.60967 -20.60670 -15.86358 -15.70675 -15.64890
 Alpha  occ. eigenvalues --  -15.60641 -11.37516 -11.36059 -11.31978 -11.26456
 Alpha  occ. eigenvalues --   -1.61653  -1.47186  -1.41018  -1.26899  -1.19103
 Alpha  occ. eigenvalues --   -1.08805  -1.02130  -0.90942  -0.85119  -0.82970
 Alpha  occ. eigenvalues --   -0.79217  -0.73908  -0.73283  -0.71174  -0.68565
 Alpha  occ. eigenvalues --   -0.67209  -0.65590  -0.58161  -0.55299  -0.51193
 Alpha  occ. eigenvalues --   -0.50717  -0.50687  -0.49219  -0.45782  -0.42864
 Alpha  occ. eigenvalues --   -0.37788
 Alpha virt. eigenvalues --    0.01994   0.03204   0.03232   0.04279   0.04546
 Alpha virt. eigenvalues --    0.05998   0.06357   0.06762   0.07006   0.07316
 Alpha virt. eigenvalues --    0.08140   0.08743   0.08799   0.10043   0.10722

 Mulliken charges:
               1
     1  N    0.178768
     2  N   -0.259992
     3  C    0.373915
     4  N   -0.446391
     5  N    0.515535
     6  O   -0.373575
     7  O   -0.382398
     8  C    0.074838
     9  H    0.250703
    10  C   -0.162601
    11  H    0.209939
    12  C   -0.433194
    13  H    0.234717
    14  H    0.219736
 Sum of Mulliken charges =  -0.00000

 Dipole moment (field-independent basis, Debye):
    X=              7.1594    Y=              2.0226    Z=              0.0003  Tot=              7.4396
 Quadrupole moment (field-independent basis, Debye-Ang):
   XX=            -57.0883   YY=            -57.4467   ZZ=            -57.2958
   XY=              2.7368   XZ=             -0.0011   YZ=              0.0027

 Normal termination of Gaussian 09 at Thu Aug 26 16:43:34 2021.
