 Gaussian 09, Revision E.01,
 Gaussian 09:  ES64L-G09RevE.01 30-Nov-2015

 ----------------
 #P G4 OPT=calcfc
 ----------------

 ------
 OXIRUK
 ------
 Symbolic Z-matrix:
 Charge =  0 Multiplicity = 1

 SCF Done:  E(RB3LYP) =  -562.177287962     A.U. after   15 cycles
 SCF Done:  E(RB3LYP) =  -562.220178890     A.U. after   13 cycles
 SCF Done:  E(RB3LYP) =  -562.224833075     A.U. after   15 cycles
 SCF Done:  E(RB3LYP) =  -562.225055801     A.U. after   13 cycles
 SCF Done:  E(RB3LYP) =  -562.225083197     A.U. after   12 cycles
 SCF Done:  E(RB3LYP) =  -562.225085789     A.U. after   11 cycles
 SCF Done:  E(RB3LYP) =  -562.225086284     A.U. after    9 cycles
 SCF Done:  E(RB3LYP) =  -562.225086329     A.U. after    8 cycles
 Optimization completed.
    -- Stationary point found.
 Normal termination of Gaussian 09 at Thu Aug 26 15:01:02 2021.

 ----------------------------------------------------------
 #P Geom=AllCheck Guess=TCheck SCRF=Check B3LYP/GTBas3 Freq
 ----------------------------------------------------------

 Structure from the checkpoint file:  "/public/home/users/caep010/.cache/gau_scr/Gau-191840.chk"
 ------
 OXIRUK
 ------
 Charge =  0 Multiplicity = 1

 SCF Done:  E(RB3LYP) =  -562.225086329     A.U. after    1 cycles

  Exact polarizability: 124.472   6.986  79.920   0.001   0.003  42.129
 Approx polarizability: 173.727  11.074 166.588   0.003   0.004  67.418

                      1                      2                      3
                      A                      A                      A
 Frequencies --     16.3042                43.3753               110.2881
 Red. masses --      4.0173                 9.6266                 5.4818
 Frc consts  --      0.0006                 0.0107                 0.0393
 IR Inten    --      1.9938                 0.0066                 0.2340

                      4                      5                      6
                      A                      A                      A
 Frequencies --    146.9288               197.4728               272.7304
 Red. masses --      4.9168                 7.5510                 5.0345
 Frc consts  --      0.0625                 0.1735                 0.2206
 IR Inten    --      0.7829                 0.5691                 0.9731

                      7                      8                      9
                      A                      A                      A
 Frequencies --    319.6096               340.9334               379.6037
 Red. masses --      3.7316                 7.1887                 9.6643
 Frc consts  --      0.2246                 0.4923                 0.8205
 IR Inten    --      4.9714                 5.1444                 0.5937

                     10                     11                     12
                      A                      A                      A
 Frequencies --    502.2485               586.5061               640.2852
 Red. masses --     10.6902                10.8580                 1.2464
 Frc consts  --      1.5888                 2.2006                 0.3011
 IR Inten    --      1.7755                 1.2236                42.0418

                     13                     14                     15
                      A                      A                      A
 Frequencies --    652.3718               674.2283               704.5240
 Red. masses --      4.3324                 8.5650                 1.3334
 Frc consts  --      1.0863                 2.2940                 0.3899
 IR Inten    --      0.2971                26.4450                22.5531

                     16                     17                     18
                      A                      A                      A
 Frequencies --    751.1592               811.3451               850.6878
 Red. masses --      4.0390                13.0416                14.6438
 Frc consts  --      1.3427                 5.0582                 6.2437
 IR Inten    --     28.9513                 0.2181                77.7996

                     19                     20                     21
                      A                      A                      A
 Frequencies --    878.8167               978.3081               996.3776
 Red. masses --      1.3722                 4.0877                 1.6796
 Frc consts  --      0.6244                 2.3050                 0.9824
 IR Inten    --      9.9475                 3.2021                 0.5570

                     22                     23                     24
                      A                      A                      A
 Frequencies --   1035.2306              1053.7442              1215.5969
 Red. masses --      6.7422                 5.6599                 1.7116
 Frc consts  --      4.2572                 3.7028                 1.4901
 IR Inten    --      2.5072                26.6045                43.5571

                     25                     26                     27
                      A                      A                      A
 Frequencies --   1253.4400              1255.2737              1353.8480
 Red. masses --      1.0763                 3.7739                 3.7649
 Frc consts  --      0.9963                 3.5037                 4.0657
 IR Inten    --      0.7525                 1.2862               194.4843

                     28                     29                     30
                      A                      A                      A
 Frequencies --   1361.5907              1404.9291              1436.2711
 Red. masses --      4.8865                 7.1008                 8.6744
 Frc consts  --      5.3375                 8.2579                10.5430
 IR Inten    --     13.8975                18.6290                98.5764

                     31                     32                     33
                      A                      A                      A
 Frequencies --   1460.9925              1498.2791              1537.4010
 Red. masses --      2.0877                 1.3857                 5.6766
 Frc consts  --      2.6255                 1.8328                 7.9052
 IR Inten    --      2.1573                 5.8587                50.3576

                     34                     35                     36
                      A                      A                      A
 Frequencies --   1659.7739              2253.2591              3050.1764
 Red. masses --     14.5128                 5.8560                 1.0577
 Frc consts  --     23.5560                17.5177                 5.7977
 IR Inten    --    215.3980                 5.2467                 5.7839

                     37                     38                     39
                      A                      A                      A
 Frequencies --   3085.1632              3286.3479              3497.9382
 Red. masses --      1.1042                 1.0987                 1.1658
 Frc consts  --      6.1925                 6.9911                 8.4045
 IR Inten    --      0.7719                 1.1841                77.4707

 - Thermochemistry -
 -------------------
 Temperature   298.150 Kelvin.  Pressure   1.00000 Atm.
 Atom     1 has atomic number  7 and mass  14.00307

 Molecular mass:   152.03343 amu.
 Principal axes and moments of inertia in atomic units:
                           1         2         3
     Eigenvalues --   423.300373187.109733599.22219
           X            1.00000   0.00112   0.00000
           Y           -0.00112   1.00000   0.00002
           Z           -0.00000  -0.00002   1.00000
 This molecule is an asymmetric top.
 Rotational symmetry number  1.
 Rotational temperatures (Kelvin)      0.20462     0.02718     0.02406
 Rotational constants (GHZ):           4.26350     0.56626     0.50143
 Zero-point vibrational energy     260506.9 (Joules/Mol)
                                   62.26265 (Kcal/Mol)
 Warning -- explicit consideration of  11 degrees of freedom as
           vibrations may cause significant error
 Vibrational temperatures:     23.46    62.41   158.68   211.40   284.12
          (Kelvin)            392.40   459.85   490.53   546.16   722.62
                              843.85   921.23   938.62   970.06  1013.65
                             1080.75  1167.34  1223.95  1264.42  1407.57
                             1433.56  1489.46  1516.10  1748.97  1803.42
                             1806.06  1947.88  1959.02  2021.38  2066.47
                             2102.04  2155.69  2211.97  2388.04  3241.93
                             4388.52  4438.86  4728.32  5032.75

 Zero-point correction=                           0.099222 (Hartree/Particle)
 Thermal correction to Energy=                    0.108712
 Thermal correction to Enthalpy=                  0.109656
 Thermal correction to Gibbs Free Energy=         0.062045
 Sum of electronic and zero-point Energies=           -562.125864
 Sum of electronic and thermal Energies=              -562.116374
 Sum of electronic and thermal Enthalpies=            -562.115430
 Sum of electronic and thermal Free Energies=         -562.163041

                     E (Thermal)             CV                S
                      KCal/Mol        Cal/Mol-Kelvin    Cal/Mol-Kelvin
 Total                   68.218             33.128            100.206
 Electronic               0.000              0.000              0.000
 Translational            0.889              2.981             40.967
 Rotational               0.889              2.981             29.964
 Vibrational             66.441             27.167             29.275
 Vibration     1          0.593              1.986              7.040
 Vibration     2          0.595              1.980              5.099
 Vibration     3          0.606              1.941              3.264
 Vibration     4          0.617              1.906              2.712
 Vibration     5          0.637              1.843              2.157
 Vibration     6          0.676              1.724              1.579
 Vibration     7          0.706              1.636              1.312
 Vibration     8          0.720              1.594              1.208
 Vibration     9          0.750              1.514              1.041
 Vibration    10          0.858              1.245              0.653
 Vibration    11          0.944              1.061              0.473

 Optimization completed.
    -- Stationary point found.
 Normal termination of Gaussian 09 at Thu Aug 26 15:02:34 2021.

 -----------------------------------------------------------------
 #P Geom=AllCheck Guess=TCheck SCRF=Check CCSD(T,E4T,FrzG4)/GTBas1
 -----------------------------------------------------------------

 Structure from the checkpoint file:  "/public/home/users/caep010/.cache/gau_scr/Gau-191840.chk"
 ------
 OXIRUK
 ------
 Charge =  0 Multiplicity = 1

 SCF Done:  E(RHF) =  -558.954624845     A.U. after   16 cycles
 E2 =    -0.1661025818D+01 EUMP2 =    -0.56061565066360D+03
 CCSD(T)
 CCSD(T)= -0.56070334516D+03
 P4SDTQ=-560.7215303\MP4SDQ=-560.6327554\CCSD=-560.6276146\CCSD(T)=-560
 Normal termination of Gaussian 09 at Thu Aug 26 15:30:17 2021.

 ---------------------------------------------------------
 #P Geom=AllCheck Guess=TCheck SCRF=Check MP4=FrzG4/GTBas2
 ---------------------------------------------------------

 Structure from the checkpoint file:  "/public/home/users/caep010/.cache/gau_scr/Gau-191840.chk"
 ------
 OXIRUK
 ------
 Charge =  0 Multiplicity = 1

 SCF Done:  E(RHF) =  -558.971331767     A.U. after   14 cycles
 E2 =    -0.1680618650D+01 EUMP2 =    -0.56065195041720D+03
 Normal termination of Gaussian 09 at Thu Aug 26 15:40:30 2021.

 ---------------------------------------------------------
 #P Geom=AllCheck Guess=TCheck SCRF=Check MP4=FrzG4/GTBas3
 ---------------------------------------------------------

 Structure from the checkpoint file:  "/public/home/users/caep010/.cache/gau_scr/Gau-191840.chk"
 ------
 OXIRUK
 ------
 Charge =  0 Multiplicity = 1

 SCF Done:  E(RHF) =  -559.011190434     A.U. after   13 cycles
 E2 =    -0.1962136330D+01 EUMP2 =    -0.56097332676422D+03
 Normal termination of Gaussian 09 at Thu Aug 26 16:51:16 2021.

 -----------------------------------------------------------
 #P Geom=AllCheck Guess=TCheck SCRF=Check MP2=Full/GTLargeXP
 -----------------------------------------------------------

 Structure from the checkpoint file:  "/public/home/users/caep010/.cache/gau_scr/Gau-191840.chk"
 ------
 OXIRUK
 ------
 Charge =  0 Multiplicity = 1

 SCF Done:  E(RHF) =  -559.150270552     A.U. after   13 cycles
 E2 =    -0.2563364826D+01 EUMP2 =    -0.56171363537885D+03
 Normal termination of Gaussian 09 at Thu Aug 26 17:01:36 2021.
 SCF Done:  E(RHF) =  -559.193703468     A.U. after   10 cycles
 Normal termination of Gaussian 09 at Thu Aug 26 17:05:14 2021.

                         Standard orientation:
 ---------------------------------------------------------------------
 Center     Atomic      Atomic             Coordinates (Angstroms)
 Number     Number       Type             X           Y           Z
 ---------------------------------------------------------------------
      1          7           0        0.904688   -0.255938   -0.000252
      2          7           0       -0.282157   -0.889018   -0.000030
      3          6           0       -1.119296    0.133481   -0.000066
      4          7           0       -0.572164    1.364599   -0.000296
      5          7           0       -2.565690   -0.085314    0.000160
      6          6           0        0.718099    1.085815   -0.000427
      7          1           0        1.532773    1.791550   -0.000581
      8          8           0       -2.946523   -1.245664    0.000239
      9          8           0       -3.268609    0.910988    0.000263
     10          6           0        2.135198   -1.052020   -0.000382
     11          1           0        2.112650   -1.701869    0.880851
     12          6           0        3.329554   -0.222631    0.000220
     13          6           0        4.328585    0.442421    0.000625
     14          1           0        5.216973    1.026141    0.001083
     15          1           0        2.113079   -1.701109   -0.882265
 ---------------------------------------------------------------------

 SCF Done:  E(RHF) =  -559.202031616     A.U. after    7 cycles

 The electronic state is 1-A.
 Alpha  occ. eigenvalues --  -20.60666 -20.60358 -15.86040 -15.70055 -15.64542
 Alpha  occ. eigenvalues --  -15.59968 -11.36956 -11.35257 -11.34839 -11.28031
 Alpha  occ. eigenvalues --  -11.27385  -1.61334  -1.46756  -1.40695  -1.26186
 Alpha  occ. eigenvalues --   -1.18733  -1.10366  -1.03885  -0.99041  -0.88211
 Alpha  occ. eigenvalues --   -0.83475  -0.80026  -0.75920  -0.73939  -0.72956
 Alpha  occ. eigenvalues --   -0.71957  -0.71050  -0.67495  -0.66025  -0.62559
 Alpha  occ. eigenvalues --   -0.55132  -0.50805  -0.50487  -0.48877  -0.46052
 Alpha  occ. eigenvalues --   -0.45197  -0.44539  -0.42983  -0.41207
 Alpha virt. eigenvalues --    0.02058   0.03070   0.03514   0.04214   0.04861
 Alpha virt. eigenvalues --    0.05681   0.06165   0.06210   0.06781   0.06782
 Alpha virt. eigenvalues --    0.07998   0.08051   0.08546   0.10149   0.11121

 Mulliken charges:
               1
     1  N    0.204429
     2  N   -0.338000
     3  C    0.349403
     4  N   -0.439583
     5  N    0.517206
     6  C    0.055555
     7  H    0.274540
     8  O   -0.386475
     9  O   -0.372576
    10  C   -0.281609
    11  H    0.236573
    12  C    0.138830
    13  C   -0.458558
    14  H    0.263742
    15  H    0.236523
 Sum of Mulliken charges =  -0.00000

 Dipole moment (field-independent basis, Debye):
    X=              8.1266    Y=              0.0223    Z=             -0.0010  Tot=              8.1266
 Quadrupole moment (field-independent basis, Debye-Ang):
   XX=            -63.7624   YY=            -65.5013   ZZ=            -61.2903
   XY=              3.0012   XZ=              0.0022   YZ=              0.0019

 Normal termination of Gaussian 09 at Thu Aug 26 17:27:36 2021.
