 Gaussian 09, Revision E.01,
 Gaussian 09:  ES64L-G09RevE.01 30-Nov-2015

 -----
 #P G4
 -----

 --------
 ONITAN02
 --------
 Symbolic Z-matrix:
 Charge =  0 Multiplicity = 1

 SCF Done:  E(RB3LYP) =  -491.912793138     A.U. after   15 cycles
 SCF Done:  E(RB3LYP) =  -492.075554776     A.U. after   13 cycles
 SCF Done:  E(RB3LYP) =  -492.141128698     A.U. after   14 cycles
 SCF Done:  E(RB3LYP) =  -492.144016357     A.U. after   13 cycles
 SCF Done:  E(RB3LYP) =  -492.147950661     A.U. after   13 cycles
 SCF Done:  E(RB3LYP) =  -492.140521185     A.U. after   14 cycles
 SCF Done:  E(RB3LYP) =  -492.148379705     A.U. after   11 cycles
 SCF Done:  E(RB3LYP) =  -492.148621106     A.U. after   12 cycles
 SCF Done:  E(RB3LYP) =  -492.148662434     A.U. after   11 cycles
 SCF Done:  E(RB3LYP) =  -492.148668828     A.U. after    9 cycles
 SCF Done:  E(RB3LYP) =  -492.148669777     A.U. after    8 cycles
 SCF Done:  E(RB3LYP) =  -492.148669986     A.U. after    8 cycles
 Optimization completed.
    -- Stationary point found.
 Normal termination of Gaussian 09 at Tue Aug 24 15:01:53 2021.

 ----------------------------------------------------------
 #P Geom=AllCheck Guess=TCheck SCRF=Check B3LYP/GTBas3 Freq
 ----------------------------------------------------------

 Structure from the checkpoint file:  "/public/home/users/caep010/.cache/gau_scr/Gau-60644.chk"
 --------
 ONITAN02
 --------
 Charge =  0 Multiplicity = 1

 SCF Done:  E(RB3LYP) =  -492.148669986     A.U. after    1 cycles

  Exact polarizability: 117.040   0.768 108.077   0.076  -0.037  35.961
 Approx polarizability: 197.426   0.909 210.744   0.205   0.148  59.174

                      1                      2                      3
                      A                      A                      A
 Frequencies --     45.2442                88.2587               171.4926
 Red. masses --      4.1639                 3.3575                 1.6440
 Frc consts  --      0.0050                 0.0154                 0.0285
 IR Inten    --     58.9278                33.0504                91.2939

                      4                      5                      6
                      A                      A                      A
 Frequencies --    247.1423               300.1369               386.0552
 Red. masses --      4.7966                 7.0622                 4.7372
 Frc consts  --      0.1726                 0.3748                 0.4160
 IR Inten    --      0.2340                 3.4361                 3.5811

                      7                      8                      9
                      A                      A                      A
 Frequencies --    404.9313               438.3677               538.4478
 Red. masses --      5.8337                 3.6284                 2.9140
 Frc consts  --      0.5636                 0.4108                 0.4978
 IR Inten    --      1.9427                 0.1793                12.0862

                     10                     11                     12
                      A                      A                      A
 Frequencies --    544.9453               567.9589               597.0768
 Red. masses --      5.0207                 6.7737                 1.0820
 Frc consts  --      0.8785                 1.2874                 0.2273
 IR Inten    --      2.1389                 1.8193                 8.2608

                     13                     14                     15
                      A                      A                      A
 Frequencies --    680.8287               714.4294               766.1953
 Red. masses --      6.6596                 4.1109                 1.6265
 Frc consts  --      1.8187                 1.2362                 0.5626
 IR Inten    --      7.4858                 3.8987                46.0519

                     16                     17                     18
                      A                      A                      A
 Frequencies --    805.8891               833.4513               863.0437
 Red. masses --      2.7833                 6.4362                 1.6572
 Frc consts  --      1.0650                 2.6341                 0.7272
 IR Inten    --      1.7009                 4.7757                 1.8387

                     19                     20                     21
                      A                      A                      A
 Frequencies --    884.3641               968.9285               976.8702
 Red. masses --      7.1493                 1.3354                 1.2668
 Frc consts  --      3.2944                 0.7387                 0.7122
 IR Inten    --     19.2318                 0.6281                 0.0006

                     22                     23                     24
                      A                      A                      A
 Frequencies --   1026.0371              1073.3300              1109.5786
 Red. masses --      1.9341                 1.8127                 3.3621
 Frc consts  --      1.1997                 1.2304                 2.4388
 IR Inten    --      8.0883                 2.4032                44.8243

                     25                     26                     27
                      A                      A                      A
 Frequencies --   1179.8700              1190.6115              1300.3785
 Red. masses --      1.4070                 1.1010                 1.9915
 Frc consts  --      1.1540                 0.9196                 1.9842
 IR Inten    --     18.3994                18.9347                47.6596

                     28                     29                     30
                      A                      A                      A
 Frequencies --   1308.4428              1387.8303              1392.5780
 Red. masses --      3.5975                 2.6423                 6.5394
 Frc consts  --      3.6287                 2.9986                 7.4719
 IR Inten    --    194.0319               145.6673                48.3793

                     31                     32                     33
                      A                      A                      A
 Frequencies --   1480.8971              1517.4434              1571.0076
 Red. masses --      2.6772                 2.2727                 3.5246
 Frc consts  --      3.4593                 3.0833                 5.1253
 IR Inten    --     44.9475                26.3029               213.3933

                     34                     35                     36
                      A                      A                      A
 Frequencies --   1606.3894              1621.3912              1669.3972
 Red. masses --      5.1811                 2.0648                 6.8106
 Frc consts  --      7.8773                 3.1982                11.1829
 IR Inten    --    139.2791                 7.6516               229.3541

                     37                     38                     39
                      A                      A                      A
 Frequencies --   3169.1531              3187.6509              3208.1864
 Red. masses --      1.0860                 1.0919                 1.0925
 Frc consts  --      6.4266                 6.5370                 6.6250
 IR Inten    --      6.3921                13.8957                 7.1726

                     40                     41                     42
                      A                      A                      A
 Frequencies --   3238.7832              3579.2917              3734.4236
 Red. masses --      1.0922                 1.0460                 1.1030
 Frc consts  --      6.7504                 7.8952                 9.0634
 IR Inten    --      3.1258                88.7251                75.8770

 - Thermochemistry -
 -------------------
 Temperature   298.150 Kelvin.  Pressure   1.00000 Atm.
 Atom     1 has atomic number  6 and mass  12.00000

 Molecular mass:   138.04293 amu.
 Principal axes and moments of inertia in atomic units:
                           1         2         3
     Eigenvalues --   772.317631417.930282190.15820
           X            0.99983   0.01835   0.00006
           Y           -0.01835   0.99983  -0.00095
           Z           -0.00007   0.00095   1.00000
 This molecule is an asymmetric top.
 Rotational symmetry number  1.
 Warning -- assumption of classical behavior for rotation
           may cause significant error
 Rotational temperatures (Kelvin)      0.11215     0.06108     0.03955
 Rotational constants (GHZ):           2.33679     1.27280     0.82402
 Zero-point vibrational energy     313282.4 (Joules/Mol)
                                   74.87629 (Kcal/Mol)
 Warning -- explicit consideration of  12 degrees of freedom as
           vibrations may cause significant error
 Vibrational temperatures:     65.10   126.98   246.74   355.58   431.83
          (Kelvin)            555.45   582.61   630.71   774.71   784.05
                              817.17   859.06   979.56  1027.90  1102.38
                             1159.49  1199.15  1241.73  1272.40  1394.07
                             1405.50  1476.24  1544.28  1596.43  1697.57
                             1713.02  1870.95  1882.56  1996.78  2003.61
                             2130.68  2183.26  2260.33  2311.23  2332.82
                             2401.89  4559.70  4586.31  4615.86  4659.88
                             5149.80  5373.00

 Zero-point correction=                           0.119323 (Hartree/Particle)
 Thermal correction to Energy=                    0.127750
 Thermal correction to Enthalpy=                  0.128695
 Thermal correction to Gibbs Free Energy=         0.085304
 Sum of electronic and zero-point Energies=           -492.029347
 Sum of electronic and thermal Energies=              -492.020920
 Sum of electronic and thermal Enthalpies=            -492.019975
 Sum of electronic and thermal Free Energies=         -492.063366

                     E (Thermal)             CV                S
                      KCal/Mol        Cal/Mol-Kelvin    Cal/Mol-Kelvin
 Total                   80.165             31.737             91.324
 Electronic               0.000              0.000              0.000
 Translational            0.889              2.981             40.679
 Rotational               0.889              2.981             29.263
 Vibrational             78.387             25.775             21.382
 Vibration     1          0.595              1.979              5.015
 Vibration     2          0.601              1.957              3.698
 Vibration     3          0.626              1.878              2.419
 Vibration     4          0.661              1.768              1.751
 Vibration     5          0.693              1.673              1.416
 Vibration     6          0.755              1.500              1.015
 Vibration     7          0.770              1.459              0.945
 Vibration     8          0.799              1.387              0.832
 Vibration     9          0.893              1.165              0.569
 Vibration    10          0.900              1.151              0.555
 Vibration    11          0.924              1.101              0.508
 Vibration    12          0.955              1.038              0.455

 Normal termination of Gaussian 09 at Tue Aug 24 15:03:20 2021.

 -----------------------------------------------------------------
 #P Geom=AllCheck Guess=TCheck SCRF=Check CCSD(T,E4T,FrzG4)/GTBas1
 -----------------------------------------------------------------

 Structure from the checkpoint file:  "/public/home/users/caep010/.cache/gau_scr/Gau-60644.chk"
 --------
 ONITAN02
 --------
 Charge =  0 Multiplicity = 1

 SCF Done:  E(RHF) =  -489.199320147     A.U. after   14 cycles
 E2 =    -0.1461306894D+01 EUMP2 =    -0.49066062704143D+03
 CCSD(T)
 CCSD(T)= -0.49075241734D+03
 0128\MP4SDQ=-490.6889612\CCSD=-490.6860916\CCSD(T)=-490.7524173\RMSD=8
 Normal termination of Gaussian 09 at Tue Aug 24 15:19:34 2021.

 ---------------------------------------------------------
 #P Geom=AllCheck Guess=TCheck SCRF=Check MP4=FrzG4/GTBas2
 ---------------------------------------------------------

 Structure from the checkpoint file:  "/public/home/users/caep010/.cache/gau_scr/Gau-60644.chk"
 --------
 ONITAN02
 --------
 Charge =  0 Multiplicity = 1

 SCF Done:  E(RHF) =  -489.214736648     A.U. after   14 cycles
 E2 =    -0.1479934324D+01 EUMP2 =    -0.49069467097167D+03
 Normal termination of Gaussian 09 at Tue Aug 24 15:27:18 2021.

 ---------------------------------------------------------
 #P Geom=AllCheck Guess=TCheck SCRF=Check MP4=FrzG4/GTBas3
 ---------------------------------------------------------

 Structure from the checkpoint file:  "/public/home/users/caep010/.cache/gau_scr/Gau-60644.chk"
 --------
 ONITAN02
 --------
 Charge =  0 Multiplicity = 1

 SCF Done:  E(RHF) =  -489.252105060     A.U. after   13 cycles
 E2 =    -0.1746687375D+01 EUMP2 =    -0.49099879243513D+03
 Normal termination of Gaussian 09 at Tue Aug 24 16:14:42 2021.

 -----------------------------------------------------------
 #P Geom=AllCheck Guess=TCheck SCRF=Check MP2=Full/GTLargeXP
 -----------------------------------------------------------

 Structure from the checkpoint file:  "/public/home/users/caep010/.cache/gau_scr/Gau-60644.chk"
 --------
 ONITAN02
 --------
 Charge =  0 Multiplicity = 1

 SCF Done:  E(RHF) =  -489.372461321     A.U. after   13 cycles
 E2 =    -0.2291253940D+01 EUMP2 =    -0.49166371526155D+03
 Normal termination of Gaussian 09 at Tue Aug 24 16:23:41 2021.
 SCF Done:  E(RHF) =  -489.411918035     A.U. after   10 cycles
 Normal termination of Gaussian 09 at Tue Aug 24 16:27:26 2021.

                         Standard orientation:
 ---------------------------------------------------------------------
 Center     Atomic      Atomic             Coordinates (Angstroms)
 Number     Number       Type             X           Y           Z
 ---------------------------------------------------------------------
      1          6           0       -0.435937    0.999077    0.003722
      2          6           0        0.226272   -0.258306    0.002769
      3          6           0       -0.494868   -1.460442    0.001401
      4          1           0        0.073646   -2.380179    0.001754
      5          6           0       -1.872896   -1.458829   -0.001968
      6          1           0       -2.422925   -2.391704   -0.003479
      7          6           0       -2.546900   -0.228069   -0.004163
      8          1           0       -3.631908   -0.205327   -0.007962
      9          6           0       -1.851645    0.961178   -0.001461
     10          7           0        0.201748    2.192899    0.020782
     11          1           0        1.207715    2.201329   -0.029830
     12          7           0        1.672756   -0.359619   -0.000898
     13          8           0        2.345821    0.682458   -0.012338
     14          8           0        2.182298   -1.473956    0.005745
     15          1           0       -0.331853    3.040597   -0.047283
     16          1           0       -2.385310    1.906646   -0.001446
 ---------------------------------------------------------------------

 SCF Done:  E(RHF) =  -489.419497147     A.U. after    8 cycles

 The electronic state is 1-A.
 Alpha  occ. eigenvalues --  -20.59351 -20.59113 -15.84963 -15.58651 -11.33148
 Alpha  occ. eigenvalues --  -11.29492 -11.27126 -11.26900 -11.24970 -11.24152
 Alpha  occ. eigenvalues --   -1.59557  -1.38765  -1.26319  -1.16771  -1.09172
 Alpha  occ. eigenvalues --   -1.02445  -0.95062  -0.85861  -0.84077  -0.76951
 Alpha  occ. eigenvalues --   -0.72811  -0.72618  -0.71919  -0.71463  -0.65955
 Alpha  occ. eigenvalues --   -0.62440  -0.62305  -0.56354  -0.56076  -0.52965
 Alpha  occ. eigenvalues --   -0.49277  -0.48669  -0.47659  -0.45127  -0.37676
 Alpha  occ. eigenvalues --   -0.31663
 Alpha virt. eigenvalues --    0.02868   0.03669   0.04028   0.04615   0.05795
 Alpha virt. eigenvalues --    0.06126   0.06483   0.07734   0.08101   0.08568
 Alpha virt. eigenvalues --    0.09215   0.09270   0.09881   0.09991   0.10202

 Mulliken charges:
               1
     1  C    0.312779
     2  C    0.114771
     3  C   -0.185391
     4  H    0.256762
     5  C   -0.239351
     6  H    0.215674
     7  C   -0.157536
     8  H    0.213588
     9  C   -0.232257
    10  N   -0.773311
    11  H    0.388338
    12  N    0.487946
    13  O   -0.464766
    14  O   -0.444453
    15  H    0.329381
    16  H    0.177824
 Sum of Mulliken charges =  -0.00000

 Dipole moment (field-independent basis, Debye):
    X=             -4.6969    Y=              2.0422    Z=             -0.1624  Tot=              5.1242
 Quadrupole moment (field-independent basis, Debye-Ang):
   XX=            -62.3445   YY=            -49.2748   ZZ=            -61.1692
   XY=              1.8816   XZ=             -0.0209   YZ=             -0.4993

 Normal termination of Gaussian 09 at Tue Aug 24 16:53:26 2021.
