 Gaussian 09, Revision E.01,
 Gaussian 09:  ES64L-G09RevE.01 30-Nov-2015

 ----------------
 #P G4 OPT=calcfc
 ----------------

 ------
 OROYUR
 ------
 Symbolic Z-matrix:
 Charge =  0 Multiplicity = 1

 SCF Done:  E(RB3LYP) =  -643.441424628     A.U. after   16 cycles
 SCF Done:  E(RB3LYP) =  -643.520844518     A.U. after   14 cycles
 SCF Done:  E(RB3LYP) =  -643.550187936     A.U. after   17 cycles
 SCF Done:  E(RB3LYP) =  -643.551010820     A.U. after   15 cycles
 SCF Done:  E(RB3LYP) =  -643.551178917     A.U. after   14 cycles
 SCF Done:  E(RB3LYP) =  -643.551208535     A.U. after   13 cycles
 SCF Done:  E(RB3LYP) =  -643.551221338     A.U. after   12 cycles
 SCF Done:  E(RB3LYP) =  -643.551223134     A.U. after   11 cycles
 SCF Done:  E(RB3LYP) =  -643.551223490     A.U. after    9 cycles
 SCF Done:  E(RB3LYP) =  -643.551223567     A.U. after    8 cycles
 Optimization completed.
    -- Stationary point found.
 Normal termination of Gaussian 09 at Thu Aug 26 15:00:06 2021.

 ----------------------------------------------------------
 #P Geom=AllCheck Guess=TCheck SCRF=Check B3LYP/GTBas3 Freq
 ----------------------------------------------------------

 Structure from the checkpoint file:  "/public/home/users/caep010/.cache/gau_scr/Gau-64517.chk"
 ------
 OROYUR
 ------
 Charge =  0 Multiplicity = 1

 SCF Done:  E(RB3LYP) =  -643.551223567     A.U. after    3 cycles

  Exact polarizability: 166.139  12.467 119.235  -0.002  -0.005  50.445
 Approx polarizability: 272.275  43.777 221.590  -0.020  -0.026  81.665

                      1                      2                      3
                      A                      A                      A
 Frequencies --     23.1065                75.2449               100.4127
 Red. masses --     15.2573                 3.9287                 4.5308
 Frc consts  --      0.0048                 0.0131                 0.0269
 IR Inten    --      0.1946                 0.2148                 3.7556

                      4                      5                      6
                      A                      A                      A
 Frequencies --    159.2898               183.3292               186.0951
 Red. masses --      8.5763                 7.0557                 5.9340
 Frc consts  --      0.1282                 0.1397                 0.1211
 IR Inten    --      3.0155                 0.0526                 6.6351

                      7                      8                      9
                      A                      A                      A
 Frequencies --    220.6504               288.9360               290.5645
 Red. masses --      1.2124                 3.9148                 4.1231
 Frc consts  --      0.0348                 0.1926                 0.2051
 IR Inten    --      0.0872                 0.0286                 5.8659

                     10                     11                     12
                      A                      A                      A
 Frequencies --    354.3297               384.8798               441.3280
 Red. masses --      9.7398                 8.5586                 3.5357
 Frc consts  --      0.7205                 0.7470                 0.4057
 IR Inten    --      4.2936                 0.2445                 0.0373

                     13                     14                     15
                      A                      A                      A
 Frequencies --    454.4196               506.5758               547.9524
 Red. masses --     12.3588                10.6210                 5.9222
 Frc consts  --      1.5036                 1.6058                 1.0477
 IR Inten    --      1.5653                 0.8250                 4.2976

                     16                     17                     18
                      A                      A                      A
 Frequencies --    605.6547               623.7481               701.8349
 Red. masses --      3.3894                 5.8331                 6.8437
 Frc consts  --      0.7325                 1.3371                 1.9861
 IR Inten    --     13.4219                 0.2951                 7.2751

                     19                     20                     21
                      A                      A                      A
 Frequencies --    722.2682               723.1065               794.9024
 Red. masses --      6.1843                 4.3710                 5.3648
 Frc consts  --      1.9008                 1.3466                 1.9973
 IR Inten    --     11.0777                 1.6739                 4.2606

                     22                     23                     24
                      A                      A                      A
 Frequencies --    826.4161               853.5415               931.5137
 Red. masses --     10.0917                 1.5265                 6.2498
 Frc consts  --      4.0608                 0.6552                 3.1952
 IR Inten    --     35.8293                27.7641                23.8675

                     25                     26                     27
                      A                      A                      A
 Frequencies --    939.0139               966.0439              1057.5999
 Red. masses --      1.5681                 1.3287                 2.4517
 Frc consts  --      0.8146                 0.7306                 1.6157
 IR Inten    --     12.7264                 0.6724                43.3971

                     28                     29                     30
                      A                      A                      A
 Frequencies --   1089.3817              1168.7391              1175.9736
 Red. masses --      6.7605                 1.4976                 1.2747
 Frc consts  --      4.7270                 1.2053                 1.0386
 IR Inten    --     31.4002                 5.1606                 1.0512

                     31                     32                     33
                      A                      A                      A
 Frequencies --   1210.5129              1221.2752              1269.3796
 Red. masses --      1.4028                 2.2054                 1.9731
 Frc consts  --      1.2111                 1.9381                 1.8732
 IR Inten    --      6.6649                 4.1109                55.6638

                     34                     35                     36
                      A                      A                      A
 Frequencies --   1316.1389              1343.6402              1390.6154
 Red. masses --      4.1566                 4.2550                14.2665
 Frc consts  --      4.2422                 4.5260                16.2548
 IR Inten    --    276.9002                41.1269               201.0961

                     37                     38                     39
                      A                      A                      A
 Frequencies --   1456.1873              1478.0667              1492.6233
 Red. masses --      3.8022                 1.2496                 1.0459
 Frc consts  --      4.7503                 1.6085                 1.3729
 IR Inten    --      3.0308                21.7863                 7.6370

                     40                     41                     42
                      A                      A                      A
 Frequencies --   1501.8470              1535.7369              1588.4280
 Red. masses --      1.0631                 2.9241                 7.3284
 Frc consts  --      1.4128                 4.0633                10.8942
 IR Inten    --     41.1010                95.5897                33.0237

                     43                     44                     45
                      A                      A                      A
 Frequencies --   1635.6643              1668.5037              2342.9422
 Red. masses --      9.2470                 8.9399                12.6759
 Frc consts  --     14.5760                14.6635                40.9971
 IR Inten    --    347.1063                22.1715                17.7602

                     46                     47                     48
                      A                      A                      A
 Frequencies --   3017.7930              3084.4385              3151.6403
 Red. masses --      1.0342                 1.1057                 1.1001
 Frc consts  --      5.5491                 6.1976                 6.4382
 IR Inten    --     41.7100                26.7994                13.5915

                     49                     50                     51
                      A                      A                      A
 Frequencies --   3207.7886              3227.2544              3247.5564
 Red. masses --      1.0889                 1.0930                 1.0906
 Frc consts  --      6.6015                 6.7071                 6.7767
 IR Inten    --      1.3349                 2.9564                10.6721

 - Thermochemistry -
 -------------------
 Temperature   298.150 Kelvin.  Pressure   1.00000 Atm.
 Atom     1 has atomic number  6 and mass  12.00000

 Molecular mass:   178.03784 amu.
 Principal axes and moments of inertia in atomic units:
                           1         2         3
     Eigenvalues --  1280.264893206.165184474.89395
           X            0.99992  -0.01271   0.00000
           Y            0.01271   0.99992   0.00000
           Z           -0.00000  -0.00000   1.00000
 This molecule is an asymmetric top.
 Rotational symmetry number  1.
 Warning -- assumption of classical behavior for rotation
           may cause significant error
 Rotational temperatures (Kelvin)      0.06765     0.02701     0.01936
 Rotational constants (GHZ):           1.40966     0.56290     0.40330
 Zero-point vibrational energy     351611.7 (Joules/Mol)
                                   84.03721 (Kcal/Mol)
 Warning -- explicit consideration of  16 degrees of freedom as
           vibrations may cause significant error
 Vibrational temperatures:     33.25   108.26   144.47   229.18   263.77
          (Kelvin)            267.75   317.47   415.71   418.06   509.80
                              553.76   634.97   653.81   728.85   788.38
                              871.40   897.43  1009.78  1039.18  1040.39
                             1143.69  1189.03  1228.05  1340.24  1351.03
                             1389.92  1521.65  1567.38  1681.55  1691.96
                             1741.66  1757.14  1826.35  1893.63  1933.20
                             2000.78  2095.13  2126.61  2147.55  2160.82
                             2209.58  2285.39  2353.35  2400.60  3370.97
                             4341.93  4437.81  4534.50  4615.29  4643.29
                             4672.50

 Zero-point correction=                           0.133922 (Hartree/Particle)
 Thermal correction to Energy=                    0.145154
 Thermal correction to Enthalpy=                  0.146098
 Thermal correction to Gibbs Free Energy=         0.095432
 Sum of electronic and zero-point Energies=           -643.417302
 Sum of electronic and thermal Energies=              -643.406070
 Sum of electronic and thermal Enthalpies=            -643.405126
 Sum of electronic and thermal Free Energies=         -643.455791

                     E (Thermal)             CV                S
                      KCal/Mol        Cal/Mol-Kelvin    Cal/Mol-Kelvin
 Total                   91.085             40.924            106.634
 Electronic               0.000              0.000              0.000
 Translational            0.889              2.981             41.437
 Rotational               0.889              2.981             31.286
 Vibrational             89.308             34.962             33.911
 Vibration     1          0.593              1.985              6.348
 Vibration     2          0.599              1.966              4.011
 Vibration     3          0.604              1.949              3.446
 Vibration     4          0.621              1.892              2.558
 Vibration     5          0.631              1.863              2.294
 Vibration     6          0.632              1.859              2.266
 Vibration     7          0.647              1.810              1.954
 Vibration     8          0.686              1.694              1.480
 Vibration     9          0.687              1.691              1.471
 Vibration    10          0.730              1.566              1.147
 Vibration    11          0.754              1.502              1.020
 Vibration    12          0.801              1.380              0.822
 Vibration    13          0.813              1.351              0.783
 Vibration    14          0.862              1.235              0.642
 Vibration    15          0.903              1.144              0.548
 Vibration    16          0.964              1.020              0.440

 Normal termination of Gaussian 09 at Thu Aug 26 15:03:01 2021.

 -----------------------------------------------------------------
 #P Geom=AllCheck Guess=TCheck SCRF=Check CCSD(T,E4T,FrzG4)/GTBas1
 -----------------------------------------------------------------

 Structure from the checkpoint file:  "/public/home/users/caep010/.cache/gau_scr/Gau-64517.chk"
 ------
 OROYUR
 ------
 Charge =  0 Multiplicity = 1

 SCF Done:  E(RHF) =  -639.768073816     A.U. after   16 cycles
 E2 =    -0.1891047390D+01 EUMP2 =    -0.64165912120614D+03
 CCSD(T)
 CCSD(T)= -0.64176928206D+03
 147\CCSD=-641.6828671\CCSD(T)=-641.7692821\RMSD=6.930e-09\PG=C01 [X(C8
 Normal termination of Gaussian 09 at Thu Aug 26 16:19:13 2021.

 ---------------------------------------------------------
 #P Geom=AllCheck Guess=TCheck SCRF=Check MP4=FrzG4/GTBas2
 ---------------------------------------------------------

 Structure from the checkpoint file:  "/public/home/users/caep010/.cache/gau_scr/Gau-64517.chk"
 ------
 OROYUR
 ------
 Charge =  0 Multiplicity = 1

 SCF Done:  E(RHF) =  -639.784355545     A.U. after   17 cycles
 E2 =    -0.1914050459D+01 EUMP2 =    -0.64169840600322D+03
 Normal termination of Gaussian 09 at Thu Aug 26 16:54:17 2021.

 ---------------------------------------------------------
 #P Geom=AllCheck Guess=TCheck SCRF=Check MP4=FrzG4/GTBas3
 ---------------------------------------------------------

 Structure from the checkpoint file:  "/public/home/users/caep010/.cache/gau_scr/Gau-64517.chk"
 ------
 OROYUR
 ------
 Charge =  0 Multiplicity = 1

 SCF Done:  E(RHF) =  -639.830745102     A.U. after   12 cycles
 E2 =    -0.2250226088D+01 EUMP2 =    -0.64208097119046D+03
 Normal termination of Gaussian 09 at Thu Aug 26 21:21:09 2021.

 -----------------------------------------------------------
 #P Geom=AllCheck Guess=TCheck SCRF=Check MP2=Full/GTLargeXP
 -----------------------------------------------------------

 Structure from the checkpoint file:  "/public/home/users/caep010/.cache/gau_scr/Gau-64517.chk"
 ------
 OROYUR
 ------
 Charge =  0 Multiplicity = 1

 SCF Done:  E(RHF) =  -639.985340967     A.U. after   16 cycles
 E2 =    -0.2954659183D+01 EUMP2 =    -0.64294000015021D+03
 Normal termination of Gaussian 09 at Thu Aug 26 21:33:57 2021.
 SCF Done:  E(RHF) =  -640.035487766     A.U. after   10 cycles
 Normal termination of Gaussian 09 at Thu Aug 26 21:40:45 2021.

                         Standard orientation:
 ---------------------------------------------------------------------
 Center     Atomic      Atomic             Coordinates (Angstroms)
 Number     Number       Type             X           Y           Z
 ---------------------------------------------------------------------
      1          6           0        0.865598    0.941973    0.000022
      2          6           0        0.624401   -0.443977   -0.000020
      3          6           0       -0.653705   -0.964868   -0.000028
      4          1           0       -0.795264   -2.036166   -0.000025
      5          6           0       -1.760211   -0.107437   -0.000065
      6          6           0       -1.552188    1.276133   -0.000037
      7          1           0       -2.385122    1.966090   -0.000065
      8          6           0       -0.258031    1.778988    0.000037
      9          1           0       -0.099503    2.850698    0.000109
     10          6           0        2.148282    1.569263    0.000236
     11          7           0        3.108469    2.216049    0.000492
     12          7           0        1.743750   -1.412667   -0.000085
     13          8           0        1.457971   -2.601989    0.001087
     14          8           0        2.878044   -0.961852   -0.001374
     15          8           0       -2.965100   -0.709028   -0.000128
     16          6           0       -4.133259    0.100890   -0.000055
     17          1           0       -4.181593    0.732045   -0.895246
     18          1           0       -4.181412    0.732148    0.895075
     19          1           0       -4.975284   -0.591321    0.000062
 ---------------------------------------------------------------------

 SCF Done:  E(RHF) =  -640.045104374     A.U. after    7 cycles

 The electronic state is 1-A.
 Alpha  occ. eigenvalues --  -20.62671 -20.61626 -20.61249 -15.86865 -15.57550
 Alpha  occ. eigenvalues --  -11.35775 -11.34685 -11.31876 -11.31726 -11.29945
 Alpha  occ. eigenvalues --  -11.28621 -11.28602 -11.28421  -1.62169  -1.45867
 Alpha  occ. eigenvalues --   -1.41566  -1.23763  -1.20960  -1.11428  -1.08917
 Alpha  occ. eigenvalues --   -1.00556  -0.97546  -0.89765  -0.85301  -0.81384
 Alpha  occ. eigenvalues --   -0.76646  -0.74883  -0.73640  -0.73298  -0.71629
 Alpha  occ. eigenvalues --   -0.69559  -0.65603  -0.63035  -0.61969  -0.58883
 Alpha  occ. eigenvalues --   -0.58314  -0.56093  -0.53967  -0.53731  -0.52193
 Alpha  occ. eigenvalues --   -0.51039  -0.48106  -0.46496  -0.46181  -0.40427
 Alpha  occ. eigenvalues --   -0.35696
 Alpha virt. eigenvalues --    0.01599   0.01784   0.03121   0.03854   0.04127
 Alpha virt. eigenvalues --    0.05325   0.05415   0.06044   0.06364   0.06565
 Alpha virt. eigenvalues --    0.07431   0.07511   0.07559   0.08787   0.09118

 Mulliken charges:
               1
     1  C    0.338106
     2  C    0.087308
     3  C   -0.224727
     4  H    0.286373
     5  C    0.283006
     6  C   -0.214775
     7  H    0.218051
     8  C   -0.240343
     9  H    0.241162
    10  C    0.102975
    11  N   -0.434031
    12  N    0.495972
    13  O   -0.438107
    14  O   -0.389529
    15  O   -0.302838
    16  C   -0.380217
    17  H    0.179407
    18  H    0.179398
    19  H    0.212809
 Sum of Mulliken charges =  -0.00000

 Dipole moment (field-independent basis, Debye):
    X=             -9.0918    Y=              1.7257    Z=             -0.0005  Tot=              9.2541
 Quadrupole moment (field-independent basis, Debye-Ang):
   XX=            -80.8301   YY=            -81.7572   ZZ=            -74.5606
   XY=             -8.7857   XZ=              0.0009   YZ=              0.0016

 Normal termination of Gaussian 09 at Thu Aug 26 22:21:49 2021.
