 Gaussian 09, Revision E.01,
 Gaussian 09:  ES64L-G09RevE.01 30-Nov-2015

 ----------------
 #P G4 OPT=calcfc
 ----------------

 ------
 OJOLAC
 ------
 Symbolic Z-matrix:
 Charge =  0 Multiplicity = 1

 SCF Done:  E(RB3LYP) =  -719.977470626     A.U. after   18 cycles
 SCF Done:  E(RB3LYP) =  -720.070186103     A.U. after   15 cycles
 SCF Done:  E(RB3LYP) =  -720.123983618     A.U. after   16 cycles
 SCF Done:  E(RB3LYP) =  -720.126463330     A.U. after   15 cycles
 SCF Done:  E(RB3LYP) =  -720.126668680     A.U. after   17 cycles
 SCF Done:  E(RB3LYP) =  -720.099838714     A.U. after   17 cycles
 SCF Done:  E(RB3LYP) =  -720.126987258     A.U. after   13 cycles
 SCF Done:  E(RB3LYP) =  -720.101383745     A.U. after   16 cycles
 SCF Done:  E(RB3LYP) =  -720.127131876     A.U. after   13 cycles
 SCF Done:  E(RB3LYP) =  -720.127458478     A.U. after   13 cycles
 SCF Done:  E(RB3LYP) =  -720.129141804     A.U. after   13 cycles
 SCF Done:  E(RB3LYP) =  -720.129143685     A.U. after   11 cycles
 SCF Done:  E(RB3LYP) =  -720.129143903     A.U. after   10 cycles
 Optimization completed.
    -- Stationary point found.
 Normal termination of Gaussian 09 at Fri Aug 27 08:28:56 2021.

 ----------------------------------------------------------
 #P Geom=AllCheck Guess=TCheck SCRF=Check B3LYP/GTBas3 Freq
 ----------------------------------------------------------

 Structure from the checkpoint file:  "/public/home/users/caep010/.cache/gau_scr/Gau-61690.chk"
 ------
 OJOLAC
 ------
 Charge =  0 Multiplicity = 1

 SCF Done:  E(RB3LYP) =  -720.129143903     A.U. after    1 cycles

  Exact polarizability: 108.262   1.580  93.320   0.603  -4.091  85.111
 Approx polarizability: 143.725   6.749 157.172   4.415 -11.324 153.359

                      1                      2                      3
                      A                      A                      A
 Frequencies --     26.6150                39.9567               117.8176
 Red. masses --     13.3473                 4.4887                 8.0549
 Frc consts  --      0.0056                 0.0042                 0.0659
 IR Inten    --      0.1133                 0.5328                 0.2219

                      4                      5                      6
                      A                      A                      A
 Frequencies --    149.9980               164.2247               190.6599
 Red. masses --      4.3442                 3.4414                 1.1511
 Frc consts  --      0.0576                 0.0547                 0.0247
 IR Inten    --      0.4891                 1.6528                 0.3432

                      7                      8                      9
                      A                      A                      A
 Frequencies --    218.0961               230.7030               252.1306
 Red. masses --      7.6135                 1.1109                 4.0427
 Frc consts  --      0.2134                 0.0348                 0.1514
 IR Inten    --      3.5442                 0.5518                 3.5022

                     10                     11                     12
                      A                      A                      A
 Frequencies --    301.2043               323.9347               357.2526
 Red. masses --      3.6509                 3.3493                 3.2370
 Frc consts  --      0.1952                 0.2071                 0.2434
 IR Inten    --      1.0291                 1.3907                 1.2041

                     13                     14                     15
                      A                      A                      A
 Frequencies --    374.2513               381.6636               400.3195
 Red. masses --      2.8509                 3.4119                 3.2565
 Frc consts  --      0.2353                 0.2928                 0.3075
 IR Inten    --      8.5860                 3.7089                 3.2839

                     16                     17                     18
                      A                      A                      A
 Frequencies --    459.3313               519.7848               524.2549
 Red. masses --      4.4545                 3.3421                 6.1649
 Frc consts  --      0.5537                 0.5320                 0.9983
 IR Inten    --      4.7634                15.1589                14.3784

                     19                     20                     21
                      A                      A                      A
 Frequencies --    554.7569               611.4334               687.7880
 Red. masses --      5.2232                 7.4457                 6.5243
 Frc consts  --      0.9471                 1.6400                 1.8184
 IR Inten    --      2.3571                46.7020                11.0605

                     22                     23                     24
                      A                      A                      A
 Frequencies --    733.6924               754.7894               781.3720
 Red. masses --      4.5074                 4.3494                 4.4225
 Frc consts  --      1.4296                 1.4599                 1.5909
 IR Inten    --      0.9779                21.6449                 8.9467

                     25                     26                     27
                      A                      A                      A
 Frequencies --    839.9177               857.2591               925.8586
 Red. masses --      2.7688                 7.1517                 1.4645
 Frc consts  --      1.1508                 3.0966                 0.7397
 IR Inten    --     45.7759                38.3377                 0.4531

                     28                     29                     30
                      A                      A                      A
 Frequencies --    947.0188               961.9511              1005.5678
 Red. masses --      2.2487                 2.4261                 1.3556
 Frc consts  --      1.1882                 1.3227                 0.8076
 IR Inten    --      6.9931                23.4125                 0.3453

                     31                     32                     33
                      A                      A                      A
 Frequencies --   1062.2602              1090.3168              1126.0456
 Red. masses --      5.5161                 2.6733                 3.1383
 Frc consts  --      3.6673                 1.8724                 2.3445
 IR Inten    --     16.5531                13.6634                 5.9508

                     34                     35                     36
                      A                      A                      A
 Frequencies --   1133.5325              1180.9191              1192.1958
 Red. masses --      4.8445                 2.3959                 5.6241
 Frc consts  --      3.6675                 1.9686                 4.7097
 IR Inten    --    175.0122                20.7176                22.6576

                     37                     38                     39
                      A                      A                      A
 Frequencies --   1242.8211              1251.1500              1283.9002
 Red. masses --      2.5111                 2.9250                 1.2356
 Frc consts  --      2.2852                 2.6977                 1.2001
 IR Inten    --    132.1271               134.4589                 2.3414

                     40                     41                     42
                      A                      A                      A
 Frequencies --   1308.2550              1371.2506              1384.5646
 Red. masses --      1.2505                 1.3369                 1.5481
 Frc consts  --      1.2610                 1.4811                 1.7486
 IR Inten    --      6.9320                15.3268                32.3017

                     43                     44                     45
                      A                      A                      A
 Frequencies --   1402.2055              1410.4923              1417.0058
 Red. masses --      1.3615                 2.4851                 1.5276
 Frc consts  --      1.5772                 2.9130                 1.8072
 IR Inten    --     27.3557               104.7149                17.0847

                     46                     47                     48
                      A                      A                      A
 Frequencies --   1472.1632              1472.3505              1482.2581
 Red. masses --      1.0502                 1.0534                 1.0857
 Frc consts  --      1.3411                 1.3455                 1.4054
 IR Inten    --      0.4016                 0.4119                 0.9958

                     49                     50                     51
                      A                      A                      A
 Frequencies --   1487.4669              1495.5836              1505.0026
 Red. masses --      1.0677                 1.0627                 1.0652
 Frc consts  --      1.3918                 1.4006                 1.4215
 IR Inten    --     16.6623                 1.2709                 4.7952

                     52                     53                     54
                      A                      A                      A
 Frequencies --   1654.1081              1691.6372              3043.2126
 Red. masses --     14.0294                13.8434                 1.0653
 Frc consts  --     22.6161                23.3404                 5.8130
 IR Inten    --    228.2203               124.2249                 7.9162

                     55                     56                     57
                      A                      A                      A
 Frequencies --   3045.1799              3054.4942              3059.6248
 Red. masses --      1.0631                 1.0358                 1.0359
 Frc consts  --      5.8085                 5.6941                 5.7136
 IR Inten    --      7.9158                13.2422                 4.5692

                     58                     59                     60
                      A                      A                      A
 Frequencies --   3126.6229              3130.6063              3133.2624
 Red. masses --      1.1003                 1.1020                 1.1020
 Frc consts  --      6.3376                 6.3633                 6.3743
 IR Inten    --      5.1496                12.4196                 6.2260

                     61                     62                     63
                      A                      A                      A
 Frequencies --   3140.2771              3143.5623              3150.0881
 Red. masses --      1.1025                 1.1029                 1.0960
 Frc consts  --      6.4058                 6.4215                 6.4076
 IR Inten    --     17.0492                17.2359                 0.2207

 - Thermochemistry -
 -------------------
 Temperature   298.150 Kelvin.  Pressure   1.00000 Atm.
 Atom     1 has atomic number  7 and mass  14.00307

 Molecular mass:   190.05897 amu.
 Principal axes and moments of inertia in atomic units:
                           1         2         3
     Eigenvalues --  1295.050492895.987553242.12148
           X            0.99995  -0.00953  -0.00291
           Y            0.00931   0.99771  -0.06701
           Z            0.00354   0.06698   0.99775
 This molecule is an asymmetric top.
 Rotational symmetry number  1.
 Warning -- assumption of classical behavior for rotation
           may cause significant error
 Rotational temperatures (Kelvin)      0.06688     0.02991     0.02672
 Rotational constants (GHZ):           1.39357     0.62319     0.55665
 Zero-point vibrational energy     459593.4 (Joules/Mol)
                                  109.84546 (Kcal/Mol)
 Warning -- explicit consideration of  20 degrees of freedom as
           vibrations may cause significant error
 Vibrational temperatures:     38.29    57.49   169.51   215.81   236.28
          (Kelvin)            274.32   313.79   331.93   362.76   433.37
                              466.07   514.01   538.46   549.13   575.97
                              660.87   747.85   754.28   798.17   879.72
                              989.57  1055.62  1085.97  1124.22  1208.45
                             1233.40  1332.10  1362.55  1384.03  1446.79
                             1528.35  1568.72  1620.13  1630.90  1699.08
                             1715.30  1788.14  1800.12  1847.24  1882.28
                             1972.92  1992.08  2017.46  2029.38  2038.75
                             2118.11  2118.38  2132.64  2140.13  2151.81
                             2165.36  2379.89  2433.89  4378.50  4381.33
                             4394.73  4402.11  4498.51  4504.24  4508.06
                             4518.15  4522.88  4532.27

 Zero-point correction=                           0.175050 (Hartree/Particle)
 Thermal correction to Energy=                    0.187798
 Thermal correction to Enthalpy=                  0.188742
 Thermal correction to Gibbs Free Energy=         0.135410
 Sum of electronic and zero-point Energies=           -719.954094
 Sum of electronic and thermal Energies=              -719.941346
 Sum of electronic and thermal Enthalpies=            -719.940402
 Sum of electronic and thermal Free Energies=         -719.993734

                     E (Thermal)             CV                S
                      KCal/Mol        Cal/Mol-Kelvin    Cal/Mol-Kelvin
 Total                  117.845             47.270            112.246
 Electronic               0.000              0.000              0.000
 Translational            0.889              2.981             41.632
 Rotational               0.889              2.981             30.876
 Vibrational            116.067             41.309             39.738
 Vibration     1          0.593              1.984              6.067
 Vibration     2          0.594              1.981              5.261
 Vibration     3          0.608              1.935              3.136
 Vibration     4          0.618              1.903              2.672
 Vibration     5          0.623              1.886              2.501
 Vibration     6          0.634              1.853              2.221
 Vibration     7          0.646              1.814              1.975
 Vibration     8          0.652              1.794              1.873
 Vibration     9          0.664              1.759              1.716
 Vibration    10          0.693              1.671              1.410
 Vibration    11          0.708              1.628              1.290
 Vibration    12          0.732              1.560              1.134
 Vibration    13          0.745              1.525              1.062
 Vibration    14          0.751              1.509              1.033
 Vibration    15          0.766              1.469              0.961
 Vibration    16          0.817              1.340              0.768
 Vibration    17          0.875              1.206              0.610
 Vibration    18          0.879              1.196              0.600
 Vibration    19          0.910              1.129              0.534
 Vibration    20          0.971              1.008              0.430

 Optimization completed.
    -- Stationary point found.
 Normal termination of Gaussian 09 at Fri Aug 27 08:32:39 2021.

 -----------------------------------------------------------------
 #P Geom=AllCheck Guess=TCheck SCRF=Check CCSD(T,E4T,FrzG4)/GTBas1
 -----------------------------------------------------------------

 Structure from the checkpoint file:  "/public/home/users/caep010/.cache/gau_scr/Gau-61690.chk"
 ------
 OJOLAC
 ------
 Charge =  0 Multiplicity = 1

 SCF Done:  E(RHF) =  -715.998426523     A.U. after   17 cycles
 E2 =    -0.2024699760D+01 EUMP2 =    -0.71802312628238D+03
 CCSD(T)
 CCSD(T)= -0.71815340626D+03
 P4SDTQ=-718.1699864\MP4SDQ=-718.0822089\CCSD=-718.0751197\CCSD(T)=-718
 Normal termination of Gaussian 09 at Fri Aug 27 10:43:28 2021.

 ---------------------------------------------------------
 #P Geom=AllCheck Guess=TCheck SCRF=Check MP4=FrzG4/GTBas2
 ---------------------------------------------------------

 Structure from the checkpoint file:  "/public/home/users/caep010/.cache/gau_scr/Gau-61690.chk"
 ------
 OJOLAC
 ------
 Charge =  0 Multiplicity = 1

 SCF Done:  E(RHF) =  -716.017195896     A.U. after   16 cycles
 E2 =    -0.2054286094D+01 EUMP2 =    -0.71807148198922D+03
 Normal termination of Gaussian 09 at Fri Aug 27 11:36:15 2021.

 ---------------------------------------------------------
 #P Geom=AllCheck Guess=TCheck SCRF=Check MP4=FrzG4/GTBas3
 ---------------------------------------------------------

 Structure from the checkpoint file:  "/public/home/users/caep010/.cache/gau_scr/Gau-61690.chk"
 ------
 OJOLAC
 ------
 Charge =  0 Multiplicity = 1

 SCF Done:  E(RHF) =  -716.071999083     A.U. after   14 cycles
 E2 =    -0.2456442332D+01 EUMP2 =    -0.71852844141424D+03
 Normal termination of Gaussian 09 at Fri Aug 27 17:37:15 2021.

 -----------------------------------------------------------
 #P Geom=AllCheck Guess=TCheck SCRF=Check MP2=Full/GTLargeXP
 -----------------------------------------------------------

 Structure from the checkpoint file:  "/public/home/users/caep010/.cache/gau_scr/Gau-61690.chk"
 ------
 OJOLAC
 ------
 Charge =  0 Multiplicity = 1

 SCF Done:  E(RHF) =  -716.256510954     A.U. after   17 cycles
 E2 =    -0.3193762140D+01 EUMP2 =    -0.71945027309334D+03
 Normal termination of Gaussian 09 at Fri Aug 27 17:51:47 2021.
 SCF Done:  E(RHF) =  -716.312543930     A.U. after    9 cycles
 Normal termination of Gaussian 09 at Fri Aug 27 17:59:56 2021.

                         Standard orientation:
 ---------------------------------------------------------------------
 Center     Atomic      Atomic             Coordinates (Angstroms)
 Number     Number       Type             X           Y           Z
 ---------------------------------------------------------------------
      1          7           0       -1.467767    1.491712    0.555094
      2          6           0       -0.925882    0.141930    0.036935
      3          8           0       -0.737739    2.405533    0.326046
      4          6           0       -0.073693    0.230748   -1.232202
      5          6           0       -0.063894   -0.423761    1.190149
      6          7           0       -2.191522   -0.654885   -0.141393
      7          1           0       -0.639848   -0.133013   -2.088591
      8          1           0        0.185350    1.283239   -1.395121
      9          8           0        1.071477   -0.590532   -1.113384
     10          1           0       -0.483778   -0.157862    2.161349
     11          1           0       -0.050330   -1.516358    1.106929
     12          8           0        1.206591    0.163668    1.100376
     13          8           0       -2.789698   -0.514865   -1.196730
     14          8           0       -2.558435   -1.331149    0.806872
     15          6           0        1.958340   -0.232299   -0.059568
     16          6           0        2.775613   -1.484618    0.239319
     17          6           0        2.828874    0.967450   -0.421904
     18          1           0        2.120380   -2.307901    0.534534
     19          1           0        3.481582   -1.283952    1.047990
     20          1           0        3.328887   -1.792196   -0.651425
     21          1           0        2.213931    1.848044   -0.619134
     22          1           0        3.429808    0.739396   -1.305193
     23          1           0        3.495326    1.204879    0.410943
 ---------------------------------------------------------------------

 SCF Done:  E(RHF) =  -716.324265526     A.U. after    7 cycles

 The electronic state is 1-A.
 Alpha  occ. eigenvalues --  -20.67269 -20.62496 -20.62343 -20.59160 -20.59000
 Alpha  occ. eigenvalues --  -15.86657 -15.74624 -11.36550 -11.36236 -11.32462
 Alpha  occ. eigenvalues --  -11.31893 -11.23299 -11.23276  -1.62790  -1.56941
 Alpha  occ. eigenvalues --   -1.45761  -1.42371  -1.37580  -1.18271  -1.07292
 Alpha  occ. eigenvalues --   -0.98817  -0.97667  -0.96055  -0.95374  -0.84698
 Alpha  occ. eigenvalues --   -0.80577  -0.79002  -0.75439  -0.74723  -0.72916
 Alpha  occ. eigenvalues --   -0.71190  -0.70166  -0.68655  -0.67109  -0.63364
 Alpha  occ. eigenvalues --   -0.61856  -0.60379  -0.58687  -0.57817  -0.56541
 Alpha  occ. eigenvalues --   -0.56386  -0.54360  -0.53640  -0.52170  -0.51685
 Alpha  occ. eigenvalues --   -0.49697  -0.48620  -0.47273  -0.44104  -0.42767
 Alpha virt. eigenvalues --    0.02623   0.03539   0.04117   0.04245   0.05272
 Alpha virt. eigenvalues --    0.05620   0.05979   0.06191   0.06565   0.06753
 Alpha virt. eigenvalues --    0.07246   0.08340   0.08572   0.08733   0.08975

 Mulliken charges:
               1
     1  N    0.031241
     2  C    0.502300
     3  O   -0.235697
     4  C   -0.297391
     5  C   -0.246786
     6  N    0.486421
     7  H    0.248818
     8  H    0.216000
     9  O   -0.393904
    10  H    0.230482
    11  H    0.205974
    12  O   -0.408695
    13  O   -0.416893
    14  O   -0.407989
    15  C    0.601940
    16  C   -0.619590
    17  C   -0.626499
    18  H    0.175100
    19  H    0.190110
    20  H    0.195787
    21  H    0.184129
    22  H    0.189677
    23  H    0.195463
 Sum of Mulliken charges =  -0.00000

 Dipole moment (field-independent basis, Debye):
    X=              3.7779    Y=              0.0191    Z=             -0.2233  Tot=              3.7846
 Quadrupole moment (field-independent basis, Debye-Ang):
   XX=            -83.1392   YY=            -79.8892   ZZ=            -76.9774
   XY=             -3.3704   XZ=             -0.8311   YZ=             -3.2848

 Normal termination of Gaussian 09 at Fri Aug 27 18:52:32 2021.
