 Gaussian 09, Revision E.01,
 Gaussian 09:  ES64L-G09RevE.01 30-Nov-2015

 ----------------
 #P G4 OPT=calcfc
 ----------------

 ------
 ONBZAM
 ------
 Symbolic Z-matrix:
 Charge =  0 Multiplicity = 1

 SCF Done:  E(RB3LYP) =  -605.418704980     A.U. after   16 cycles
 SCF Done:  E(RB3LYP) =  -605.461200757     A.U. after   14 cycles
 SCF Done:  E(RB3LYP) =  -605.482024215     A.U. after   14 cycles
 SCF Done:  E(RB3LYP) =  -605.485825445     A.U. after   15 cycles
 SCF Done:  E(RB3LYP) =  -605.423048270     A.U. after   13 cycles
 SCF Done:  E(RB3LYP) =  -605.486150977     A.U. after   10 cycles
 SCF Done:  E(RB3LYP) =  -605.487173338     A.U. after   16 cycles
 SCF Done:  E(RB3LYP) =  -605.487330900     A.U. after   14 cycles
 SCF Done:  E(RB3LYP) =  -605.487308300     A.U. after   12 cycles
 SCF Done:  E(RB3LYP) =  -605.487369381     A.U. after   13 cycles
 SCF Done:  E(RB3LYP) =  -605.487427921     A.U. after   12 cycles
 SCF Done:  E(RB3LYP) =  -605.487429496     A.U. after    9 cycles
 SCF Done:  E(RB3LYP) =  -605.487429953     A.U. after   10 cycles
 Optimization completed.
    -- Stationary point found.
 Normal termination of Gaussian 09 at Thu Aug 26 00:11:02 2021.

 ----------------------------------------------------------
 #P Geom=AllCheck Guess=TCheck SCRF=Check B3LYP/GTBas3 Freq
 ----------------------------------------------------------

 Structure from the checkpoint file:  "/public/home/users/caep010/.cache/gau_scr/Gau-125464.chk"
 ------
 ONBZAM
 ------
 Charge =  0 Multiplicity = 1

 SCF Done:  E(RB3LYP) =  -605.487429953     A.U. after    1 cycles

  Exact polarizability: 122.986  -1.406 108.520  -1.984  -2.533  56.439
 Approx polarizability: 206.117   5.529 187.341  -3.597  -8.371 101.713

                      1                      2                      3
                      A                      A                      A
 Frequencies --     25.2462                77.1287               105.5612
 Red. masses --      7.4962                 7.2911                 4.5125
 Frc consts  --      0.0028                 0.0256                 0.0296
 IR Inten    --      5.8800                 5.5330                 3.1605

                      4                      5                      6
                      A                      A                      A
 Frequencies --    158.2712               169.7095               263.2735
 Red. masses --      7.9496                 5.4096                 5.6295
 Frc consts  --      0.1173                 0.0918                 0.2299
 IR Inten    --      1.0656                 6.2761                 0.7109

                      7                      8                      9
                      A                      A                      A
 Frequencies --    322.0467               352.9606               413.4793
 Red. masses --      5.4026                 5.1860                 7.3775
 Frc consts  --      0.3301                 0.3807                 0.7431
 IR Inten    --      2.8070                 5.8817                 4.2403

                     10                     11                     12
                      A                      A                      A
 Frequencies --    430.3942               441.1386               525.0804
 Red. masses --      2.9699                 1.4080                 2.0025
 Frc consts  --      0.3241                 0.1614                 0.3253
 IR Inten    --     18.8046               106.2602                47.4602

                     13                     14                     15
                      A                      A                      A
 Frequencies --    570.4915               574.7415               614.0807
 Red. masses --      2.5913                 2.6884                 3.9885
 Frc consts  --      0.4969                 0.5232                 0.8862
 IR Inten    --     12.9429                27.0924                27.7528

                     16                     17                     18
                      A                      A                      A
 Frequencies --    680.1350               721.5094               763.1392
 Red. masses --      5.9335                 4.0067                 4.2595
 Frc consts  --      1.6171                 1.2289                 1.4616
 IR Inten    --     11.3686                23.8117                17.8492

                     19                     20                     21
                      A                      A                      A
 Frequencies --    766.8760               784.2782               818.6801
 Red. masses --      5.8907                 2.2787                 2.3937
 Frc consts  --      2.0411                 0.8258                 0.9452
 IR Inten    --     12.2212                27.1920                 7.4409

                     22                     23                     24
                      A                      A                      A
 Frequencies --    871.4742               909.1492               971.3202
 Red. masses --     10.2431                 1.4757                 1.3712
 Frc consts  --      4.5834                 0.7187                 0.7622
 IR Inten    --     34.6899                 0.6204                 1.5475

                     25                     26                     27
                      A                      A                      A
 Frequencies --    995.1631              1059.5134              1083.7215
 Red. masses --      1.2913                 2.4259                 4.9233
 Frc consts  --      0.7535                 1.6045                 3.4068
 IR Inten    --      0.4576                 2.1963                12.0414

                     28                     29                     30
                      A                      A                      A
 Frequencies --   1110.0497              1153.5860              1167.4743
 Red. masses --      1.9010                 2.0968                 1.8572
 Frc consts  --      1.3801                 1.6440                 1.4914
 IR Inten    --      3.6847                12.0835                 4.6340

                     31                     32                     33
                      A                      A                      A
 Frequencies --   1187.3492              1282.8105              1348.7598
 Red. masses --      1.1456                 1.6150                 6.3237
 Frc consts  --      0.9516                 1.5659                 6.7779
 IR Inten    --      0.2473                 9.1014                 4.4281

                     34                     35                     36
                      A                      A                      A
 Frequencies --   1362.5046              1398.0412              1467.2193
 Red. masses --      3.5746                12.4681                 2.2368
 Frc consts  --      3.9098                14.3579                 2.8371
 IR Inten    --    170.9111               246.9120                 6.9139

                     37                     38                     39
                      A                      A                      A
 Frequencies --   1507.8093              1606.0363              1622.3562
 Red. masses --      2.5998                 5.3765                 1.2768
 Frc consts  --      3.4824                 8.1707                 1.9800
 IR Inten    --      3.4974                19.8502               137.9679

                     40                     41                     42
                      A                      A                      A
 Frequencies --   1623.2449              1661.0332              1804.6035
 Red. masses --      7.7322                 8.9670                10.1001
 Frc consts  --     12.0039                14.5765                19.3794
 IR Inten    --    129.3848                63.5043               267.3106

                     43                     44                     45
                      A                      A                      A
 Frequencies --   3183.7708              3197.1093              3206.0703
 Red. masses --      1.0856                 1.0905                 1.0959
 Frc consts  --      6.4836                 6.5672                 6.6371
 IR Inten    --      1.1224                 5.1656                 9.0287

                     46                     47                     48
                      A                      A                      A
 Frequencies --   3234.5374              3571.7547              3699.1711
 Red. masses --      1.0926                 1.0459                 1.1015
 Frc consts  --      6.7347                 7.8617                 8.8805
 IR Inten    --      2.0513                44.1874                28.6447

 - Thermochemistry -
 -------------------
 Temperature   298.150 Kelvin.  Pressure   1.00000 Atm.
 Atom     1 has atomic number  6 and mass  12.00000

 Molecular mass:   166.03784 amu.
 Principal axes and moments of inertia in atomic units:
                           1         2         3
     Eigenvalues --  1510.912691752.588122927.87405
           X            0.99989   0.00470  -0.01394
           Y           -0.00483   0.99995  -0.00896
           Z            0.01390   0.00902   0.99986
 This molecule is an asymmetric top.
 Rotational symmetry number  1.
 Warning -- assumption of classical behavior for rotation
           may cause significant error
 Rotational temperatures (Kelvin)      0.05733     0.04942     0.02958
 Rotational constants (GHZ):           1.19447     1.02976     0.61640
 Zero-point vibrational energy     340121.4 (Joules/Mol)
                                   81.29096 (Kcal/Mol)
 Warning -- explicit consideration of  15 degrees of freedom as
           vibrations may cause significant error
 Vibrational temperatures:     36.32   110.97   151.88   227.72   244.17
          (Kelvin)            378.79   463.35   507.83   594.90   619.24
                              634.70   755.47   820.81   826.92   883.52
                              978.56  1038.09  1097.99  1103.36  1128.40
                             1177.90  1253.86  1308.06  1397.51  1431.82
                             1524.40  1559.23  1597.11  1659.75  1679.73
                             1708.33  1845.68  1940.56  1960.34  2011.47
                             2111.00  2169.40  2310.73  2334.21  2335.48
                             2389.85  2596.42  4580.73  4599.92  4612.81
                             4653.77  5138.95  5322.28

 Zero-point correction=                           0.129545 (Hartree/Particle)
 Thermal correction to Energy=                    0.139734
 Thermal correction to Enthalpy=                  0.140678
 Thermal correction to Gibbs Free Energy=         0.092528
 Sum of electronic and zero-point Energies=           -605.357885
 Sum of electronic and thermal Energies=              -605.347696
 Sum of electronic and thermal Enthalpies=            -605.346752
 Sum of electronic and thermal Free Energies=         -605.394901

                     E (Thermal)             CV                S
                      KCal/Mol        Cal/Mol-Kelvin    Cal/Mol-Kelvin
 Total                   87.685             37.808            101.340
 Electronic               0.000              0.000              0.000
 Translational            0.889              2.981             41.229
 Rotational               0.889              2.981             30.429
 Vibrational             85.907             31.846             29.682
 Vibration     1          0.593              1.985              6.172
 Vibration     2          0.599              1.964              3.963
 Vibration     3          0.605              1.945              3.349
 Vibration     4          0.621              1.893              2.570
 Vibration     5          0.625              1.880              2.439
 Vibration     6          0.670              1.740              1.640
 Vibration     7          0.707              1.631              1.300
 Vibration     8          0.729              1.569              1.153
 Vibration     9          0.777              1.441              0.914
 Vibration    10          0.792              1.404              0.857
 Vibration    11          0.801              1.380              0.823
 Vibration    12          0.880              1.194              0.598
 Vibration    13          0.927              1.095              0.503
 Vibration    14          0.931              1.086              0.495
 Vibration    15          0.973              1.002              0.426

 Optimization completed.
    -- Stationary point found.
 Normal termination of Gaussian 09 at Thu Aug 26 00:13:23 2021.

 -----------------------------------------------------------------
 #P Geom=AllCheck Guess=TCheck SCRF=Check CCSD(T,E4T,FrzG4)/GTBas1
 -----------------------------------------------------------------

 Structure from the checkpoint file:  "/public/home/users/caep010/.cache/gau_scr/Gau-125464.chk"
 ------
 ONBZAM
 ------
 Charge =  0 Multiplicity = 1

 SCF Done:  E(RHF) =  -601.941952232     A.U. after   15 cycles
 E2 =    -0.1764213875D+01 EUMP2 =    -0.60370616610639D+03
 CCSD(T)
 CCSD(T)= -0.60380910407D+03
 Normal termination of Gaussian 09 at Thu Aug 26 01:04:52 2021.

 ---------------------------------------------------------
 #P Geom=AllCheck Guess=TCheck SCRF=Check MP4=FrzG4/GTBas2
 ---------------------------------------------------------

 Structure from the checkpoint file:  "/public/home/users/caep010/.cache/gau_scr/Gau-125464.chk"
 ------
 ONBZAM
 ------
 Charge =  0 Multiplicity = 1

 SCF Done:  E(RHF) =  -601.960508601     A.U. after   16 cycles
 E2 =    -0.1789334476D+01 EUMP2 =    -0.60374984307652D+03
 Normal termination of Gaussian 09 at Thu Aug 26 01:24:57 2021.

 ---------------------------------------------------------
 #P Geom=AllCheck Guess=TCheck SCRF=Check MP4=FrzG4/GTBas3
 ---------------------------------------------------------

 Structure from the checkpoint file:  "/public/home/users/caep010/.cache/gau_scr/Gau-125464.chk"
 ------
 ONBZAM
 ------
 Charge =  0 Multiplicity = 1

 SCF Done:  E(RHF) =  -602.003963598     A.U. after   12 cycles
 E2 =    -0.2105894802D+01 EUMP2 =    -0.60410985840017D+03
 Normal termination of Gaussian 09 at Thu Aug 26 03:53:46 2021.

 -----------------------------------------------------------
 #P Geom=AllCheck Guess=TCheck SCRF=Check MP2=Full/GTLargeXP
 -----------------------------------------------------------

 Structure from the checkpoint file:  "/public/home/users/caep010/.cache/gau_scr/Gau-125464.chk"
 ------
 ONBZAM
 ------
 Charge =  0 Multiplicity = 1

 SCF Done:  E(RHF) =  -602.154341880     A.U. after   15 cycles
 E2 =    -0.2762987532D+01 EUMP2 =    -0.60491732941242D+03
 Normal termination of Gaussian 09 at Thu Aug 26 04:11:19 2021.
 SCF Done:  E(RHF) =  -602.201945235     A.U. after   10 cycles
 Normal termination of Gaussian 09 at Thu Aug 26 04:17:04 2021.

                         Standard orientation:
 ---------------------------------------------------------------------
 Center     Atomic      Atomic             Coordinates (Angstroms)
 Number     Number       Type             X           Y           Z
 ---------------------------------------------------------------------
      1          6           0        0.562934    0.538584    0.010344
      2          7           0       -0.222413    1.784714    0.064217
      3          6           0        1.948719    0.652034    0.031785
      4          8           0        0.349662    2.830277   -0.208085
      5          8           0       -1.396388    1.696394    0.403450
      6          6           0        2.723274   -0.500976    0.044678
      7          6           0        2.104097   -1.748975    0.030411
      8          6           0        0.715535   -1.843277   -0.005271
      9          6           0       -0.084043   -0.698627   -0.017451
     10          6           0       -1.579513   -0.876015   -0.208967
     11          7           0       -2.256138   -1.264747    0.913316
     12          1           0       -1.880529   -1.018458    1.815166
     13          1           0       -3.263032   -1.271036    0.834435
     14          1           0        2.389661    1.639644    0.046586
     15          1           0        3.804204   -0.423672    0.069961
     16          1           0        2.702963   -2.653268    0.041627
     17          8           0       -2.076491   -0.805926   -1.311165
     18          1           0        0.236302   -2.815443   -0.037284
 ---------------------------------------------------------------------

 SCF Done:  E(RHF) =  -602.211147901     A.U. after    8 cycles

 The electronic state is 1-A.
 Alpha  occ. eigenvalues --  -20.60798 -20.60760 -20.53513 -15.86072 -15.59349
 Alpha  occ. eigenvalues --  -11.37600 -11.32467 -11.29685 -11.28277 -11.28027
 Alpha  occ. eigenvalues --  -11.27546 -11.27301  -1.61344  -1.40887  -1.40008
 Alpha  occ. eigenvalues --   -1.22860  -1.20775  -1.10279  -1.07084  -0.97469
 Alpha  occ. eigenvalues --   -0.89714  -0.85077  -0.82207  -0.77927  -0.74633
 Alpha  occ. eigenvalues --   -0.73536  -0.72891  -0.70314  -0.67550  -0.67427
 Alpha  occ. eigenvalues --   -0.64716  -0.61918  -0.57963  -0.57163  -0.54885
 Alpha  occ. eigenvalues --   -0.54481  -0.50413  -0.50007  -0.46386  -0.44826
 Alpha  occ. eigenvalues --   -0.43182  -0.38667  -0.37667
 Alpha virt. eigenvalues --    0.02477   0.02947   0.03507   0.04069   0.05014
 Alpha virt. eigenvalues --    0.05424   0.06190   0.06600   0.06942   0.07489
 Alpha virt. eigenvalues --    0.07901   0.08154   0.08644   0.09175   0.09267

 Mulliken charges:
               1
     1  C    0.031573
     2  N    0.490733
     3  C   -0.193491
     4  O   -0.428370
     5  O   -0.426035
     6  C   -0.200071
     7  C   -0.175955
     8  C   -0.217947
     9  C    0.291423
    10  C    0.524379
    11  N   -0.714606
    12  H    0.342792
    13  H    0.349469
    14  H    0.261413
    15  H    0.221265
    16  H    0.220516
    17  O   -0.601337
    18  H    0.224248
 Sum of Mulliken charges =  -0.00000

 Dipole moment (field-independent basis, Debye):
    X=              3.6221    Y=             -3.7845    Z=              3.5197  Tot=              6.3111
 Quadrupole moment (field-independent basis, Debye-Ang):
   XX=            -60.2842   YY=            -73.4217   ZZ=            -71.7508
   XY=              0.5818   XZ=             -7.7152   YZ=             -2.4753

 Normal termination of Gaussian 09 at Thu Aug 26 04:56:19 2021.
