 Gaussian 09, Revision E.01,
 Gaussian 09:  ES64L-G09RevE.01 30-Nov-2015

 ----------------
 #P G4 OPT=calcfc
 ----------------

 ------
 PIZHAH
 ------
 Symbolic Z-matrix:
 Charge =  0 Multiplicity = 1

 SCF Done:  E(RB3LYP) =  -660.750776772     A.U. after   16 cycles
 SCF Done:  E(RB3LYP) =  -660.846251625     A.U. after   15 cycles
 SCF Done:  E(RB3LYP) =  -660.901148339     A.U. after   17 cycles
 SCF Done:  E(RB3LYP) =  -660.903924107     A.U. after   16 cycles
 SCF Done:  E(RB3LYP) =  -660.898895176     A.U. after   15 cycles
 SCF Done:  E(RB3LYP) =  -660.901659293     A.U. after   13 cycles
 SCF Done:  E(RB3LYP) =  -660.903928804     A.U. after   10 cycles
 SCF Done:  E(RB3LYP) =  -660.905112185     A.U. after   13 cycles
 SCF Done:  E(RB3LYP) =  -660.905213107     A.U. after   12 cycles
 SCF Done:  E(RB3LYP) =  -660.905219039     A.U. after   12 cycles
 SCF Done:  E(RB3LYP) =  -660.905222839     A.U. after   12 cycles
 SCF Done:  E(RB3LYP) =  -660.905223218     A.U. after    8 cycles
 Optimization completed.
    -- Stationary point found.
 Normal termination of Gaussian 09 at Wed Aug 25 19:02:33 2021.

 ----------------------------------------------------------
 #P Geom=AllCheck Guess=TCheck SCRF=Check B3LYP/GTBas3 Freq
 ----------------------------------------------------------

 Structure from the checkpoint file:  "/public/home/users/caep010/.cache/gau_scr/Gau-102157.chk"
 ------
 PIZHAH
 ------
 Charge =  0 Multiplicity = 1

 SCF Done:  E(RB3LYP) =  -660.905223218     A.U. after    1 cycles

  Exact polarizability: 117.971  -4.813  78.846  -0.851  -3.496  78.130
 Approx polarizability: 176.759 -17.822 111.868  -3.491  -7.765 141.523

                      1                      2                      3
                      A                      A                      A
 Frequencies --     36.0466                68.8110                87.5680
 Red. masses --      7.0369                 4.8168                 3.8404
 Frc consts  --      0.0054                 0.0134                 0.0174
 IR Inten    --      5.2701                 0.1530                 0.6012

                      4                      5                      6
                      A                      A                      A
 Frequencies --    115.5830               140.6311               166.1948
 Red. masses --      6.5855                 4.4902                 2.6192
 Frc consts  --      0.0518                 0.0523                 0.0426
 IR Inten    --      3.3386                 4.1969                 2.4115

                      7                      8                      9
                      A                      A                      A
 Frequencies --    197.2462               227.7859               237.0596
 Red. masses --      1.5700                 4.3829                 3.0535
 Frc consts  --      0.0360                 0.1340                 0.1011
 IR Inten    --      0.7552                 4.6727                 0.2754

                     10                     11                     12
                      A                      A                      A
 Frequencies --    323.0925               358.2102               368.1446
 Red. masses --      3.7001                 3.1038                 3.8682
 Frc consts  --      0.2276                 0.2346                 0.3089
 IR Inten    --      0.7784                 1.1136                 2.7623

                     13                     14                     15
                      A                      A                      A
 Frequencies --    382.7678               440.2643               532.1248
 Red. masses --      3.7218                 4.5042                 3.2138
 Frc consts  --      0.3213                 0.5144                 0.5362
 IR Inten    --      2.4096                 2.1541                 0.8299

                     16                     17                     18
                      A                      A                      A
 Frequencies --    607.2957               699.2484               742.6910
 Red. masses --      4.6007                 9.5229                 2.5344
 Frc consts  --      0.9997                 2.7434                 0.8236
 IR Inten    --      1.4810                32.7546                 5.1203

                     19                     20                     21
                      A                      A                      A
 Frequencies --    776.8007               798.3392               817.7110
 Red. masses --      6.6952                 1.5104                 4.3828
 Frc consts  --      2.3803                 0.5672                 1.7266
 IR Inten    --     11.7761                21.5463                29.1488

                     22                     23                     24
                      A                      A                      A
 Frequencies --    864.2652               898.8654               925.9725
 Red. masses --      7.9534                 3.4621                 4.1689
 Frc consts  --      3.5002                 1.6481                 2.1060
 IR Inten    --    220.9658                37.7032                26.4216

                     25                     26                     27
                      A                      A                      A
 Frequencies --    934.8732               979.8764              1013.3898
 Red. masses --      1.4390                 2.1559                 1.7640
 Frc consts  --      0.7410                 1.2196                 1.0673
 IR Inten    --      1.8158                 0.8082                 3.1589

                     28                     29                     30
                      A                      A                      A
 Frequencies --   1039.7001              1113.7932              1119.4003
 Red. masses --      3.0440                 1.2118                 1.8715
 Frc consts  --      1.9387                 0.8857                 1.3817
 IR Inten    --      5.8617                 0.8874                 3.2022

                     31                     32                     33
                      A                      A                      A
 Frequencies --   1145.4413              1172.5456              1221.4675
 Red. masses --      1.8330                 2.2037                 3.2476
 Frc consts  --      1.4170                 1.7851                 2.8548
 IR Inten    --     15.5617                 2.9207                58.1284

                     34                     35                     36
                      A                      A                      A
 Frequencies --   1243.3111              1274.9298              1294.1635
 Red. masses --      1.8725                 2.6022                 1.6666
 Frc consts  --      1.7054                 2.4921                 1.6446
 IR Inten    --    107.2581                94.0742                 1.9221

                     37                     38                     39
                      A                      A                      A
 Frequencies --   1304.1200              1333.3553              1354.8555
 Red. masses --      2.2358                 1.7301                 3.7129
 Frc consts  --      2.2404                 1.8123                 4.0155
 IR Inten    --    199.4639                48.1664                83.9343

                     40                     41                     42
                      A                      A                      A
 Frequencies --   1376.7847              1416.1233              1481.1972
 Red. masses --      1.9370                 1.2338                 1.0717
 Frc consts  --      2.1632                 1.4578                 1.3853
 IR Inten    --     19.2576                 3.5540                 6.3250

                     43                     44                     45
                      A                      A                      A
 Frequencies --   1489.3665              1497.6223              1499.5978
 Red. masses --      1.0735                 1.0398                 1.1259
 Frc consts  --      1.4030                 1.3741                 1.4918
 IR Inten    --      4.0704                 7.5696                14.5198

                     46                     47                     48
                      A                      A                      A
 Frequencies --   1505.1651              1560.9187              1751.2240
 Red. masses --      1.0679                10.4319                14.1873
 Frc consts  --      1.4255                14.9752                25.6350
 IR Inten    --      9.6210               146.0334               369.8691

                     49                     50                     51
                      A                      A                      A
 Frequencies --   3042.6417              3044.6306              3067.4183
 Red. masses --      1.0616                 1.0420                 1.0552
 Frc consts  --      5.7905                 5.6910                 5.8495
 IR Inten    --      7.0154                18.9124                13.8475

                     52                     53                     54
                      A                      A                      A
 Frequencies --   3075.2653              3094.5444              3116.1715
 Red. masses --      1.0577                 1.0954                 1.0996
 Frc consts  --      5.8935                 6.1802                 6.2910
 IR Inten    --     14.7697                 0.4247                29.0318

                     55                     56                     57
                      A                      A                      A
 Frequencies --   3124.6061              3126.0608              3131.8018
 Red. masses --      1.1074                 1.1047                 1.1113
 Frc consts  --      6.3703                 6.3603                 6.4218
 IR Inten    --      0.1865                20.0486                12.4701

 - Thermochemistry -
 -------------------
 Temperature   298.150 Kelvin.  Pressure   1.00000 Atm.
 Atom     1 has atomic number  8 and mass  15.99491

 Molecular mass:   175.05931 amu.
 Principal axes and moments of inertia in atomic units:
                           1         2         3
     Eigenvalues --  1079.043473131.366143598.78464
           X            0.99989   0.01461   0.00301
           Y           -0.01458   0.99986  -0.00775
           Z           -0.00313   0.00770   0.99997
 This molecule is an asymmetric top.
 Rotational symmetry number  1.
 Warning -- assumption of classical behavior for rotation
           may cause significant error
 Rotational temperatures (Kelvin)      0.08027     0.02766     0.02407
 Rotational constants (GHZ):           1.67254     0.57634     0.50149
 Zero-point vibrational energy     417252.0 (Joules/Mol)
                                   99.72561 (Kcal/Mol)
 Warning -- explicit consideration of  16 degrees of freedom as
           vibrations may cause significant error
 Vibrational temperatures:     51.86    99.00   125.99   166.30   202.34
          (Kelvin)            239.12   283.79   327.73   341.08   464.86
                              515.38   529.68   550.72   633.44   765.61
                              873.76  1006.06  1068.57  1117.64  1148.63
                             1176.50  1243.48  1293.27  1332.27  1345.07
                             1409.82  1458.04  1495.89  1602.50  1610.57
                             1648.03  1687.03  1757.42  1788.85  1834.34
                             1862.01  1876.34  1918.40  1949.33  1980.88
                             2037.48  2131.11  2142.86  2154.74  2157.58
                             2165.59  2245.81  2519.62  4377.68  4380.54
                             4413.33  4424.62  4452.35  4483.47  4495.61
                             4497.70  4505.96

 Zero-point correction=                           0.158923 (Hartree/Particle)
 Thermal correction to Energy=                    0.170767
 Thermal correction to Enthalpy=                  0.171711
 Thermal correction to Gibbs Free Energy=         0.119978
 Sum of electronic and zero-point Energies=           -660.746300
 Sum of electronic and thermal Energies=              -660.734456
 Sum of electronic and thermal Enthalpies=            -660.733512
 Sum of electronic and thermal Free Energies=         -660.785246

                     E (Thermal)             CV                S
                      KCal/Mol        Cal/Mol-Kelvin    Cal/Mol-Kelvin
 Total                  107.158             42.227            108.882
 Electronic               0.000              0.000              0.000
 Translational            0.889              2.981             41.387
 Rotational               0.889              2.981             30.876
 Vibrational            105.380             36.265             36.619
 Vibration     1          0.594              1.982              5.465
 Vibration     2          0.598              1.969              4.187
 Vibration     3          0.601              1.958              3.714
 Vibration     4          0.608              1.936              3.173
 Vibration     5          0.615              1.913              2.795
 Vibration     6          0.624              1.884              2.478
 Vibration     7          0.637              1.844              2.159
 Vibration     8          0.651              1.799              1.896
 Vibration     9          0.656              1.784              1.825
 Vibration    10          0.708              1.629              1.294
 Vibration    11          0.733              1.558              1.130
 Vibration    12          0.741              1.538              1.088
 Vibration    13          0.752              1.507              1.028
 Vibration    14          0.800              1.382              0.826
 Vibration    15          0.887              1.179              0.582
 Vibration    16          0.966              1.016              0.437

 Optimization completed.
    -- Stationary point found.
 Normal termination of Gaussian 09 at Wed Aug 25 19:05:11 2021.

 -----------------------------------------------------------------
 #P Geom=AllCheck Guess=TCheck SCRF=Check CCSD(T,E4T,FrzG4)/GTBas1
 -----------------------------------------------------------------

 Structure from the checkpoint file:  "/public/home/users/caep010/.cache/gau_scr/Gau-102157.chk"
 ------
 PIZHAH
 ------
 Charge =  0 Multiplicity = 1

 SCF Done:  E(RHF) =  -657.074278592     A.U. after   17 cycles
 E2 =    -0.1888925301D+01 EUMP2 =    -0.65896320389299D+03
 CCSD(T)
 CCSD(T)= -0.65908072385D+03
 P4SDTQ=-659.0978662\MP4SDQ=-659.0097628\CCSD=-659.0036873\CCSD(T)=-659
 Normal termination of Gaussian 09 at Wed Aug 25 20:17:29 2021.

 ---------------------------------------------------------
 #P Geom=AllCheck Guess=TCheck SCRF=Check MP4=FrzG4/GTBas2
 ---------------------------------------------------------

 Structure from the checkpoint file:  "/public/home/users/caep010/.cache/gau_scr/Gau-102157.chk"
 ------
 PIZHAH
 ------
 Charge =  0 Multiplicity = 1

 SCF Done:  E(RHF) =  -657.091812662     A.U. after   15 cycles
 E2 =    -0.1915656128D+01 EUMP2 =    -0.65900746878964D+03
 Normal termination of Gaussian 09 at Wed Aug 25 20:44:21 2021.

 ---------------------------------------------------------
 #P Geom=AllCheck Guess=TCheck SCRF=Check MP4=FrzG4/GTBas3
 ---------------------------------------------------------

 Structure from the checkpoint file:  "/public/home/users/caep010/.cache/gau_scr/Gau-102157.chk"
 ------
 PIZHAH
 ------
 Charge =  0 Multiplicity = 1

 SCF Done:  E(RHF) =  -657.143237657     A.U. after   15 cycles
 E2 =    -0.2280673486D+01 EUMP2 =    -0.65942391114274D+03
 Normal termination of Gaussian 09 at Wed Aug 25 23:57:26 2021.

 -----------------------------------------------------------
 #P Geom=AllCheck Guess=TCheck SCRF=Check MP2=Full/GTLargeXP
 -----------------------------------------------------------

 Structure from the checkpoint file:  "/public/home/users/caep010/.cache/gau_scr/Gau-102157.chk"
 ------
 PIZHAH
 ------
 Charge =  0 Multiplicity = 1

 SCF Done:  E(RHF) =  -657.310675942     A.U. after   15 cycles
 E2 =    -0.2959707658D+01 EUMP2 =    -0.66027038359997D+03
 Normal termination of Gaussian 09 at Thu Aug 26 00:20:30 2021.
 SCF Done:  E(RHF) =  -657.363403219     A.U. after   11 cycles
 Normal termination of Gaussian 09 at Thu Aug 26 00:27:12 2021.

                         Standard orientation:
 ---------------------------------------------------------------------
 Center     Atomic      Atomic             Coordinates (Angstroms)
 Number     Number       Type             X           Y           Z
 ---------------------------------------------------------------------
      1          8           0        1.132000   -0.219019   -0.794247
      2          6           0        0.068891    0.254066    0.061584
      3          6           0       -0.665427   -0.871755    0.856405
      4          7           0       -1.820737   -0.658334   -0.021548
      5          7           0       -3.102026   -0.761533    0.315841
      6          8           0       -3.851888   -0.136599   -0.418888
      7          7           0        2.253631   -0.790964   -0.134819
      8          8           0        3.132681   -1.075808   -0.895863
      9          8           0        2.188952   -0.932566    1.064265
     10          6           0       -1.193397    0.381428   -0.846896
     11          6           0        0.448741    1.511738    0.836872
     12          6           0        0.958261    2.648774   -0.054695
     13          1           0       -0.221841   -1.864300    0.762689
     14          1           0       -0.856007   -0.647853    1.908378
     15          1           0       -1.725825    1.334779   -0.792597
     16          1           0       -1.041215    0.098451   -1.890613
     17          1           0        1.193442    1.254459    1.594660
     18          1           0       -0.448360    1.833096    1.379608
     19          1           0        1.186290    3.530503    0.549660
     20          1           0        1.868076    2.361437   -0.588271
     21          1           0        0.212986    2.941661   -0.801590
 ---------------------------------------------------------------------

 SCF Done:  E(RHF) =  -657.374084378     A.U. after    8 cycles

 The electronic state is 1-A.
 Alpha  occ. eigenvalues --  -20.68082 -20.64431 -20.64266 -20.59136 -15.93759
 Alpha  occ. eigenvalues --  -15.73661 -15.63678 -11.35051 -11.30593 -11.30299
 Alpha  occ. eigenvalues --  -11.26014 -11.24181  -1.68462  -1.52101  -1.46582
 Alpha  occ. eigenvalues --   -1.44608  -1.31119  -1.12885  -1.05562  -0.98802
 Alpha  occ. eigenvalues --   -0.97245  -0.90906  -0.85026  -0.81428  -0.79335
 Alpha  occ. eigenvalues --   -0.78832  -0.75864  -0.73506  -0.71799  -0.69287
 Alpha  occ. eigenvalues --   -0.65624  -0.65139  -0.62413  -0.60074  -0.59221
 Alpha  occ. eigenvalues --   -0.57387  -0.56321  -0.55433  -0.54510  -0.53279
 Alpha  occ. eigenvalues --   -0.52470  -0.50678  -0.50098  -0.48825  -0.42452
 Alpha  occ. eigenvalues --   -0.40639
 Alpha virt. eigenvalues --    0.02656   0.03396   0.03882   0.04637   0.05386
 Alpha virt. eigenvalues --    0.05913   0.06560   0.06593   0.07170   0.07722
 Alpha virt. eigenvalues --    0.08388   0.08949   0.09072   0.09430   0.10038

 Mulliken charges:
               1
     1  O   -0.256025
     2  C    0.466919
     3  C   -0.303402
     4  N    0.073298
     5  N    0.056699
     6  O   -0.411560
     7  N    0.643136
     8  O   -0.359360
     9  O   -0.376572
    10  C   -0.382609
    11  C   -0.356450
    12  C   -0.573837
    13  H    0.203983
    14  H    0.207900
    15  H    0.213880
    16  H    0.213085
    17  H    0.222831
    18  H    0.190426
    19  H    0.181606
    20  H    0.179751
    21  H    0.166302
 Sum of Mulliken charges =  -0.00000

 Dipole moment (field-independent basis, Debye):
    X=              1.3806    Y=              2.1611    Z=              1.1208  Tot=              2.7987
 Quadrupole moment (field-independent basis, Debye-Ang):
   XX=            -97.3420   YY=            -66.6537   ZZ=            -70.3488
   XY=              2.2790   XZ=             -0.2535   YZ=              0.3571

 Normal termination of Gaussian 09 at Thu Aug 26 01:07:27 2021.
