 Gaussian 09, Revision E.01,
 Gaussian 09:  ES64L-G09RevE.01 30-Nov-2015

 -----
 #P G4
 -----

 ------
 PESJIH
 ------
 Symbolic Z-matrix:
 Charge =  0 Multiplicity = 1

 SCF Done:  E(RB3LYP) =  -624.700865711     A.U. after   15 cycles
 SCF Done:  E(RB3LYP) =  -624.816331552     A.U. after   13 cycles
 SCF Done:  E(RB3LYP) =  -624.889198679     A.U. after   14 cycles
 SCF Done:  E(RB3LYP) =  -624.890507351     A.U. after   12 cycles
 SCF Done:  E(RB3LYP) =  -624.890692883     A.U. after   12 cycles
 SCF Done:  E(RB3LYP) =  -624.890406229     A.U. after   13 cycles
 SCF Done:  E(RB3LYP) =  -624.890724543     A.U. after   12 cycles
 SCF Done:  E(RB3LYP) =  -624.890735728     A.U. after    9 cycles
 SCF Done:  E(RB3LYP) =  -624.890739740     A.U. after    8 cycles
 SCF Done:  E(RB3LYP) =  -624.890742528     A.U. after    8 cycles
 SCF Done:  E(RB3LYP) =  -624.890744254     A.U. after    8 cycles
 SCF Done:  E(RB3LYP) =  -624.890744856     A.U. after    8 cycles
 SCF Done:  E(RB3LYP) =  -624.890744951     A.U. after    7 cycles
 Optimization completed.
    -- Stationary point found.
 Normal termination of Gaussian 09 at Tue Aug 24 15:26:26 2021.

 ----------------------------------------------------------
 #P Geom=AllCheck Guess=TCheck SCRF=Check B3LYP/GTBas3 Freq
 ----------------------------------------------------------

 Structure from the checkpoint file:  "/public/home/users/caep010/.cache/gau_scr/Gau-81984.chk"
 ------
 PESJIH
 ------
 Charge =  0 Multiplicity = 1

 SCF Done:  E(RB3LYP) =  -624.890744951     A.U. after    1 cycles

  Exact polarizability: 245.807   1.626 115.633   0.006  -0.004  53.107
 Approx polarizability: 355.796   8.087 218.105   0.020  -0.010  86.102

                      1                      2                      3
                      A                      A                      A
 Frequencies --     39.3838                74.8591                88.9782
 Red. masses --      5.4331                 6.0509                 4.4323
 Frc consts  --      0.0050                 0.0200                 0.0207
 IR Inten    --      0.1247                 1.0958                 0.2949

                      4                      5                      6
                      A                      A                      A
 Frequencies --    110.8675               120.4324               200.0335
 Red. masses --      2.5602                 2.5361                 1.4445
 Frc consts  --      0.0185                 0.0217                 0.0341
 IR Inten    --      0.0862                11.3466                 3.4238

                      7                      8                      9
                      A                      A                      A
 Frequencies --    223.4808               285.6773               286.5852
 Red. masses --      6.2212                 5.2612                 7.4068
 Frc consts  --      0.1831                 0.2530                 0.3584
 IR Inten    --      2.3523                 1.8916                 3.6502

                     10                     11                     12
                      A                      A                      A
 Frequencies --    320.6344               332.8205               425.6690
 Red. masses --      4.1726                 4.0537                 3.1081
 Frc consts  --      0.2527                 0.2646                 0.3318
 IR Inten    --      5.8690                12.5165                 1.8962

                     13                     14                     15
                      A                      A                      A
 Frequencies --    464.2092               481.3575               514.9807
 Red. masses --      1.2551                 5.9643                 2.4265
 Frc consts  --      0.1594                 0.8142                 0.3792
 IR Inten    --     43.0165                13.0250                17.5640

                     16                     17                     18
                      A                      A                      A
 Frequencies --    527.8776               571.7413               643.2706
 Red. masses --      7.0457                 3.8623                 6.8564
 Frc consts  --      1.1567                 0.7439                 1.6716
 IR Inten    --      3.6826                 0.2784                 1.0087

                     19                     20                     21
                      A                      A                      A
 Frequencies --    687.8675               714.9863               783.0428
 Red. masses --      6.7968                 3.6341                 5.1710
 Frc consts  --      1.8948                 1.0946                 1.8681
 IR Inten    --      0.0590                11.3295                21.5520

                     22                     23                     24
                      A                      A                      A
 Frequencies --    833.3379               846.1172               876.0834
 Red. masses --      1.3224                 6.5291                 1.6998
 Frc consts  --      0.5411                 2.7540                 0.7687
 IR Inten    --      3.9544                33.8524                27.4888

                     25                     26                     27
                      A                      A                      A
 Frequencies --    883.8261               893.1640               953.6969
 Red. masses --      6.8285                 1.2747                 1.6900
 Frc consts  --      3.1427                 0.5991                 0.9056
 IR Inten    --      7.1495                 4.3029                 0.2915

                     28                     29                     30
                      A                      A                      A
 Frequencies --    964.8799               998.5106              1015.6451
 Red. masses --      1.3047                 1.3401                 2.7723
 Frc consts  --      0.7157                 0.7872                 1.6849
 IR Inten    --      0.6512                 0.3554                 4.1427

                     31                     32                     33
                      A                      A                      A
 Frequencies --   1068.9199              1121.9161              1130.5563
 Red. masses --      1.5311                 1.7007                 2.3986
 Frc consts  --      1.0307                 1.2613                 1.8063
 IR Inten    --      0.2587                31.3144               158.8803

                     34                     35                     36
                      A                      A                      A
 Frequencies --   1141.2090              1171.7140              1200.2069
 Red. masses --      1.9407                 3.1377                 1.3905
 Frc consts  --      1.4891                 2.5381                 1.1801
 IR Inten    --     44.5903               158.5338                 2.6245

                     37                     38                     39
                      A                      A                      A
 Frequencies --   1296.4438              1323.3527              1354.4072
 Red. masses --      1.6588                 1.6895                 1.8450
 Frc consts  --      1.6427                 1.7433                 1.9940
 IR Inten    --    184.8170               122.6381                67.5285

                     40                     41                     42
                      A                      A                      A
 Frequencies --   1380.1219              1387.6739              1410.4643
 Red. masses --      4.0367                 3.6152                 1.4296
 Frc consts  --      4.5302                 4.1016                 1.6756
 IR Inten    --    522.7895               146.2030                 2.6054

                     43                     44                     45
                      A                      A                      A
 Frequencies --   1456.7099              1475.2143              1479.0096
 Red. masses --      3.0527                 1.0444                 1.0719
 Frc consts  --      3.8167                 1.3392                 1.3815
 IR Inten    --      4.7790                 6.2870                 7.1754

                     46                     47                     48
                      A                      A                      A
 Frequencies --   1519.8941              1561.9019              1600.5196
 Red. masses --      2.0663                 2.9472                 5.5330
 Frc consts  --      2.8123                 4.2361                 8.3509
 IR Inten    --     26.3256               197.0691                85.7670

                     49                     50                     51
                      A                      A                      A
 Frequencies --   1641.7979              1646.7101              1717.1729
 Red. masses --      6.4013                 7.6907                 7.4188
 Frc consts  --     10.1662                12.2871                12.8888
 IR Inten    --    366.3499               167.3561                 2.6608

                     52                     53                     54
                      A                      A                      A
 Frequencies --   3016.9018              3028.0070              3073.9683
 Red. masses --      1.0757                 1.0470                 1.0989
 Frc consts  --      5.7687                 5.6562                 6.1182
 IR Inten    --     45.7226                30.6781                14.0028

                     55                     56                     57
                      A                      A                      A
 Frequencies --   3140.7071              3172.4778              3227.9247
 Red. masses --      1.0991                 1.0892                 1.0873
 Frc consts  --      6.3874                 6.4589                 6.6752
 IR Inten    --      8.4707                11.4378                 0.2965

                     58                     59                     60
                      A                      A                      A
 Frequencies --   3236.4020              3240.1340              3510.0936
 Red. masses --      1.0918                 1.0942                 1.0750
 Frc consts  --      6.7380                 6.7683                 7.8038
 IR Inten    --      0.8784                 1.1617                18.9232

 - Thermochemistry -
 -------------------
 Temperature   298.150 Kelvin.  Pressure   1.00000 Atm.
 Atom     1 has atomic number  6 and mass  12.00000

 Molecular mass:   179.06948 amu.
 Principal axes and moments of inertia in atomic units:
                           1         2         3
     Eigenvalues --   586.705915907.769996483.32257
           X            0.99997  -0.00713  -0.00001
           Y            0.00713   0.99997  -0.00000
           Z            0.00001   0.00000   1.00000
 This molecule is an asymmetric top.
 Rotational symmetry number  1.
 Warning -- assumption of classical behavior for rotation
           may cause significant error
 Rotational temperatures (Kelvin)      0.14763     0.01466     0.01336
 Rotational constants (GHZ):           3.07606     0.30549     0.27837
 Zero-point vibrational energy     441999.5 (Joules/Mol)
                                  105.64042 (Kcal/Mol)
 Warning -- explicit consideration of  17 degrees of freedom as
           vibrations may cause significant error
 Vibrational temperatures:     56.66   107.71   128.02   159.51   173.28
          (Kelvin)            287.80   321.54   411.03   412.33   461.32
                              478.85   612.44   667.89   692.57   740.94
                              759.50   822.61   925.52   989.69  1028.70
                             1126.62  1198.99  1217.37  1260.49  1271.63
                             1285.06  1372.16  1388.25  1436.63  1461.28
                             1537.94  1614.18  1626.62  1641.94  1685.83
                             1726.83  1865.29  1904.01  1948.69  1985.69
                             1996.55  2029.34  2095.88  2122.50  2127.96
                             2186.79  2247.23  2302.79  2362.18  2369.25
                             2470.63  4340.64  4356.62  4422.75  4518.77
                             4564.48  4644.26  4656.45  4661.82  5050.24

 Zero-point correction=                           0.168349 (Hartree/Particle)
 Thermal correction to Energy=                    0.180224
 Thermal correction to Enthalpy=                  0.181169
 Thermal correction to Gibbs Free Energy=         0.129430
 Sum of electronic and zero-point Energies=           -624.722396
 Sum of electronic and thermal Energies=              -624.710521
 Sum of electronic and thermal Enthalpies=            -624.709576
 Sum of electronic and thermal Free Energies=         -624.761315

                     E (Thermal)             CV                S
                      KCal/Mol        Cal/Mol-Kelvin    Cal/Mol-Kelvin
 Total                  113.092             43.954            108.893
 Electronic               0.000              0.000              0.000
 Translational            0.889              2.981             41.455
 Rotational               0.889              2.981             31.486
 Vibrational            111.315             37.992             35.952
 Vibration     1          0.594              1.981              5.290
 Vibration     2          0.599              1.966              4.021
 Vibration     3          0.602              1.957              3.682
 Vibration     4          0.607              1.940              3.254
 Vibration     5          0.609              1.932              3.093
 Vibration     6          0.638              1.840              2.133
 Vibration     7          0.649              1.805              1.931
 Vibration     8          0.683              1.700              1.499
 Vibration     9          0.684              1.699              1.494
 Vibration    10          0.706              1.634              1.307
 Vibration    11          0.715              1.610              1.246
 Vibration    12          0.787              1.414              0.873
 Vibration    13          0.822              1.329              0.754
 Vibration    14          0.838              1.291              0.706
 Vibration    15          0.870              1.217              0.622
 Vibration    16          0.883              1.188              0.592
 Vibration    17          0.928              1.092              0.501

 Optimization completed.
    -- Stationary point found.
 Normal termination of Gaussian 09 at Tue Aug 24 15:29:18 2021.

 -----------------------------------------------------------------
 #P Geom=AllCheck Guess=TCheck SCRF=Check CCSD(T,E4T,FrzG4)/GTBas1
 -----------------------------------------------------------------

 Structure from the checkpoint file:  "/public/home/users/caep010/.cache/gau_scr/Gau-81984.chk"
 ------
 PESJIH
 ------
 Charge =  0 Multiplicity = 1

 SCF Done:  E(RHF) =  -621.090806233     A.U. after   14 cycles
 E2 =    -0.1878786389D+01 EUMP2 =    -0.62296959262260D+03
 CCSD(T)
 CCSD(T)= -0.62309963447D+03
 0182987\CCSD=-623.0153609\CCSD(T)=-623.0996345\RMSD=8.510e-09\PG=C01 [
 Normal termination of Gaussian 09 at Tue Aug 24 17:10:19 2021.

 ---------------------------------------------------------
 #P Geom=AllCheck Guess=TCheck SCRF=Check MP4=FrzG4/GTBas2
 ---------------------------------------------------------

 Structure from the checkpoint file:  "/public/home/users/caep010/.cache/gau_scr/Gau-81984.chk"
 ------
 PESJIH
 ------
 Charge =  0 Multiplicity = 1

 SCF Done:  E(RHF) =  -621.107546051     A.U. after   16 cycles
 E2 =    -0.1901667077D+01 EUMP2 =    -0.62300921312764D+03
 Normal termination of Gaussian 09 at Tue Aug 24 17:52:30 2021.

 ---------------------------------------------------------
 #P Geom=AllCheck Guess=TCheck SCRF=Check MP4=FrzG4/GTBas3
 ---------------------------------------------------------

 Structure from the checkpoint file:  "/public/home/users/caep010/.cache/gau_scr/Gau-81984.chk"
 ------
 PESJIH
 ------
 Charge =  0 Multiplicity = 1

 SCF Done:  E(RHF) =  -621.155731142     A.U. after   12 cycles
 E2 =    -0.2245188007D+01 EUMP2 =    -0.62340091914872D+03
 Normal termination of Gaussian 09 at Tue Aug 24 22:20:17 2021.

 -----------------------------------------------------------
 #P Geom=AllCheck Guess=TCheck SCRF=Check MP2=Full/GTLargeXP
 -----------------------------------------------------------

 Structure from the checkpoint file:  "/public/home/users/caep010/.cache/gau_scr/Gau-81984.chk"
 ------
 PESJIH
 ------
 Charge =  0 Multiplicity = 1

 SCF Done:  E(RHF) =  -621.303633100     A.U. after   14 cycles
 E2 =    -0.2948338514D+01 EUMP2 =    -0.62425197161452D+03
 Normal termination of Gaussian 09 at Tue Aug 24 22:32:39 2021.
 SCF Done:  E(RHF) =  -621.353248944     A.U. after   10 cycles
 Normal termination of Gaussian 09 at Tue Aug 24 22:39:20 2021.

                         Standard orientation:
 ---------------------------------------------------------------------
 Center     Atomic      Atomic             Coordinates (Angstroms)
 Number     Number       Type             X           Y           Z
 ---------------------------------------------------------------------
      1          6           0        0.693284    0.486904    0.000338
      2          6           0       -0.235539    1.544506   -0.000157
      3          1           0        0.118027    2.571072   -0.000491
      4          7           0        2.037763    0.784001    0.000665
      5          6           0        0.230114   -0.841326    0.000611
      6          6           0       -1.128841   -1.096724    0.000401
      7          6           0       -2.034663   -0.037066   -0.000012
      8          1           0       -1.507787   -2.109970    0.000591
      9          1           0        0.949192   -1.648407    0.000947
     10          1           0        2.322694    1.758159    0.000776
     11          7           0        2.984238   -0.182587   -0.000046
     12          6           0        4.209843    0.175972    0.000061
     13          1           0        4.488703    1.239025    0.000714
     14          6           0        5.310151   -0.833791   -0.000722
     15          1           0        4.896922   -1.844013   -0.001184
     16          1           0        5.953390   -0.712757    0.879392
     17          1           0        5.953006   -0.711801   -0.880990
     18          7           0       -3.465451   -0.313078   -0.000164
     19          8           0       -4.234188    0.645048   -0.000238
     20          8           0       -3.823123   -1.487753   -0.000220
     21          6           0       -1.592770    1.284506   -0.000290
     22          1           0       -2.320983    2.084100   -0.000657
 ---------------------------------------------------------------------

 SCF Done:  E(RHF) =  -621.362700402     A.U. after    8 cycles

 The electronic state is 1-A.
 Alpha  occ. eigenvalues --  -20.58204 -20.58177 -15.83725 -15.63225 -15.62676
 Alpha  occ. eigenvalues --  -11.31835 -11.29729 -11.28413 -11.26976 -11.26774
 Alpha  occ. eigenvalues --  -11.25069 -11.24693 -11.24319  -1.58588  -1.37930
 Alpha  occ. eigenvalues --   -1.36714  -1.20323  -1.15530  -1.06502  -1.04529
 Alpha  occ. eigenvalues --   -1.00166  -0.92970  -0.87713  -0.82432  -0.81604
 Alpha  occ. eigenvalues --   -0.76778  -0.74281  -0.73326  -0.70898  -0.70351
 Alpha  occ. eigenvalues --   -0.64347  -0.63960  -0.62487  -0.61593  -0.60541
 Alpha  occ. eigenvalues --   -0.58469  -0.57520  -0.56277  -0.52199  -0.51708
 Alpha  occ. eigenvalues --   -0.48338  -0.47849  -0.46548  -0.44174  -0.41377
 Alpha  occ. eigenvalues --   -0.36646  -0.30811
 Alpha virt. eigenvalues --    0.02244   0.02876   0.04061   0.04322   0.04806
 Alpha virt. eigenvalues --    0.04934   0.05698   0.06121   0.06662   0.07083
 Alpha virt. eigenvalues --    0.07418   0.07888   0.08843   0.08900   0.09016

 Mulliken charges:
               1
     1  C    0.313704
     2  C   -0.252162
     3  H    0.179098
     4  N   -0.312890
     5  C   -0.228847
     6  C   -0.211873
     7  C    0.082521
     8  H    0.262073
     9  H    0.243272
    10  H    0.311367
    11  N   -0.270832
    12  C   -0.033555
    13  H    0.164133
    14  C   -0.509644
    15  H    0.196905
    16  H    0.185078
    17  H    0.185086
    18  N    0.520616
    19  O   -0.452442
    20  O   -0.453817
    21  C   -0.179325
    22  H    0.261534
 Sum of Mulliken charges =  -0.00000

 Dipole moment (field-independent basis, Debye):
    X=              8.6672    Y=              2.6037    Z=              0.0007  Tot=              9.0498
 Quadrupole moment (field-independent basis, Debye-Ang):
   XX=            -84.7147   YY=            -69.9111   ZZ=            -78.7730
   XY=              1.0263   XZ=             -0.0004   YZ=             -0.0019

 Normal termination of Gaussian 09 at Tue Aug 24 23:23:55 2021.
