 Gaussian 09, Revision E.01,
 Gaussian 09:  ES64L-G09RevE.01 30-Nov-2015

 ----------------
 #P G4 OPT=calcfc
 ----------------

 ------
 POQFOS
 ------
 Symbolic Z-matrix:
 Charge =  0 Multiplicity = 1

 SCF Done:  E(RB3LYP) =  -719.928894432     A.U. after   18 cycles
 SCF Done:  E(RB3LYP) =  -720.011732636     A.U. after   13 cycles
 SCF Done:  E(RB3LYP) =  -720.046538199     A.U. after   15 cycles
 SCF Done:  E(RB3LYP) =  -720.048272348     A.U. after   14 cycles
 SCF Done:  E(RB3LYP) =  -720.047308616     A.U. after   14 cycles
 SCF Done:  E(RB3LYP) =  -720.048763304     A.U. after   10 cycles
 SCF Done:  E(RB3LYP) =  -720.048767395     A.U. after   12 cycles
 SCF Done:  E(RB3LYP) =  -720.048816595     A.U. after   11 cycles
 SCF Done:  E(RB3LYP) =  -720.048822134     A.U. after   10 cycles
 SCF Done:  E(RB3LYP) =  -720.048822636     A.U. after    9 cycles
 SCF Done:  E(RB3LYP) =  -720.048822753     A.U. after    6 cycles
 SCF Done:  E(RB3LYP) =  -720.048822752     A.U. after    7 cycles
 SCF Done:  E(RB3LYP) =  -720.048822749     A.U. after    7 cycles
 Optimization completed on the basis of negligible forces.
    -- Stationary point found.
 Normal termination of Gaussian 09 at Fri Aug 27 08:17:13 2021.

 ----------------------------------------------------------
 #P Geom=AllCheck Guess=TCheck SCRF=Check B3LYP/GTBas3 Freq
 ----------------------------------------------------------

 Structure from the checkpoint file:  "/public/home/users/caep010/.cache/gau_scr/Gau-106921.chk"
 ------
 POQFOS
 ------
 Charge =  0 Multiplicity = 1

 SCF Done:  E(RB3LYP) =  -720.048822749     A.U. after    1 cycles

  Exact polarizability: 172.535  -0.086 135.324   0.048  -0.059  53.472
 Approx polarizability: 263.679   8.554 258.342  -0.413  -0.241  87.335

                      1                      2                      3
                      A                      A                      A
 Frequencies --     16.8783                39.6047                64.6004
 Red. masses --      1.0463                 9.0175                 4.3283
 Frc consts  --      0.0002                 0.0083                 0.0106
 IR Inten    --      0.3925                 3.1911                 4.0389

                      4                      5                      6
                      A                      A                      A
 Frequencies --     88.4871               119.8749               147.6531
 Red. masses --      7.5626                 6.5466                 5.5014
 Frc consts  --      0.0349                 0.0554                 0.0707
 IR Inten    --      0.0053                 1.4004                 0.1071

                      7                      8                      9
                      A                      A                      A
 Frequencies --    198.7741               255.7516               310.6594
 Red. masses --      6.7370                 7.2342                 4.6450
 Frc consts  --      0.1568                 0.2788                 0.2641
 IR Inten    --      1.2227                 8.4883                 0.6182

                     10                     11                     12
                      A                      A                      A
 Frequencies --    347.9544               379.4031               403.7532
 Red. masses --      6.4406                 5.1909                 7.6265
 Frc consts  --      0.4594                 0.4402                 0.7325
 IR Inten    --      4.5113                 0.2969                 3.1709

                     13                     14                     15
                      A                      A                      A
 Frequencies --    439.7969               442.7003               510.3577
 Red. masses --      9.1625                 4.2061                 4.1235
 Frc consts  --      1.0442                 0.4857                 0.6328
 IR Inten    --      1.1619                 0.0069                28.6419

                     16                     17                     18
                      A                      A                      A
 Frequencies --    519.8285               569.6058               573.7422
 Red. masses --      1.3463                 2.9754                 5.3278
 Frc consts  --      0.2143                 0.5688                 1.0333
 IR Inten    --     55.2903                10.7040                 0.7826

                     19                     20                     21
                      A                      A                      A
 Frequencies --    617.6859               652.2946               696.9887
 Red. masses --      2.1941                 4.9341                 7.3791
 Frc consts  --      0.4932                 1.2369                 2.1120
 IR Inten    --      8.2423                 0.0907                10.0381

                     22                     23                     24
                      A                      A                      A
 Frequencies --    711.8497               774.5762               798.0057
 Red. masses --      4.1149                 1.3281                 3.5257
 Frc consts  --      1.2285                 0.4695                 1.3228
 IR Inten    --      2.5582                45.5024                39.3985

                     25                     26                     27
                      A                      A                      A
 Frequencies --    827.0491               841.7114               848.6018
 Red. masses --      5.4148                 9.0647                 1.5706
 Frc consts  --      2.1822                 3.7838                 0.6664
 IR Inten    --     18.8580                10.4706                24.1859

                     28                     29                     30
                      A                      A                      A
 Frequencies --    946.3167               953.2354               957.6894
 Red. masses --      1.4078                 3.2344                 1.3127
 Frc consts  --      0.7428                 1.7316                 0.7094
 IR Inten    --      5.3007                 3.6068                 4.9638

                     31                     32                     33
                      A                      A                      A
 Frequencies --    962.7731              1018.6049              1048.1544
 Red. masses --      6.1132                 1.8089                 1.7492
 Frc consts  --      3.3386                 1.1058                 1.1322
 IR Inten    --      2.3295                48.3146                 6.1964

                     34                     35                     36
                      A                      A                      A
 Frequencies --   1093.7331              1158.3011              1212.3911
 Red. masses --      2.6739                 1.4560                 1.5076
 Frc consts  --      1.8846                 1.1510                 1.3056
 IR Inten    --     25.7156                23.5731                37.6515

                     37                     38                     39
                      A                      A                      A
 Frequencies --   1249.0440              1267.5557              1305.1225
 Red. masses --      2.7726                 2.3900                 3.7698
 Frc consts  --      2.5485                 2.2624                 3.7833
 IR Inten    --    103.4950               181.5641               144.4919

                     40                     41                     42
                      A                      A                      A
 Frequencies --   1317.1829              1377.5435              1390.2291
 Red. masses --      2.3886                 4.0972                 1.3770
 Frc consts  --      2.4417                 4.5808                 1.5680
 IR Inten    --    255.1068                67.3288                19.6454

                     43                     44                     45
                      A                      A                      A
 Frequencies --   1420.6922              1454.4804              1470.8315
 Red. masses --      3.6110                 1.9841                 1.1670
 Frc consts  --      4.2941                 2.4730                 1.4875
 IR Inten    --     11.4721                44.8210                35.2817

                     46                     47                     48
                      A                      A                      A
 Frequencies --   1484.9252              1532.0391              1555.1287
 Red. masses --      1.0533                 3.6706                 2.1760
 Frc consts  --      1.3684                 5.0761                 3.1005
 IR Inten    --      8.2577               214.7366               642.7283

                     49                     50                     51
                      A                      A                      A
 Frequencies --   1612.9484              1632.8053              1680.4548
 Red. masses --      6.6488                 3.7473                 7.1704
 Frc consts  --     10.1914                 5.8862                11.9302
 IR Inten    --    108.4841                12.7438                43.9929

                     52                     53                     54
                      A                      A                      A
 Frequencies --   1790.8132              3042.9267              3106.5723
 Red. masses --      8.8821                 1.0384                 1.1000
 Frc consts  --     16.7829                 5.6652                 6.2547
 IR Inten    --    171.8476                 5.0398                10.0620

                     55                     56                     57
                      A                      A                      A
 Frequencies --   3162.1130              3163.0165              3211.4697
 Red. masses --      1.0890                 1.0996                 1.0925
 Frc consts  --      6.4157                 6.4818                 6.6387
 IR Inten    --     11.7307                 4.4170                 1.7044

                     58                     59                     60
                      A                      A                      A
 Frequencies --   3275.3327              3394.7531              3628.9036
 Red. masses --      1.0903                 1.0654                 1.0764
 Frc consts  --      6.8914                 7.2341                 8.3519
 IR Inten    --     25.2653               245.3166                21.1152

 - Thermochemistry -
 -------------------
 Temperature   298.150 Kelvin.  Pressure   1.00000 Atm.
 Atom     1 has atomic number  8 and mass  15.99491

 Molecular mass:   196.04841 amu.
 Principal axes and moments of inertia in atomic units:
                           1         2         3
     Eigenvalues --  1364.676294294.802735647.96641
           X            1.00000   0.00030   0.00050
           Y           -0.00030   1.00000   0.00011
           Z           -0.00050  -0.00011   1.00000
 This molecule is an asymmetric top.
 Rotational symmetry number  1.
 Warning -- assumption of classical behavior for rotation
           may cause significant error
 Rotational temperatures (Kelvin)      0.06347     0.02017     0.01534
 Rotational constants (GHZ):           1.32247     0.42022     0.31954
 Zero-point vibrational energy     425130.5 (Joules/Mol)
                                  101.60863 (Kcal/Mol)
 Warning -- explicit consideration of  19 degrees of freedom as
           vibrations may cause significant error
 Vibrational temperatures:     24.28    56.98    92.95   127.31   172.47
          (Kelvin)            212.44   285.99   367.97   446.97   500.63
                              545.88   580.91   632.77   636.95   734.29
                              747.92   819.53   825.49   888.71   938.51
                             1002.81  1024.19  1114.44  1148.15  1189.94
                             1211.03  1220.95  1361.54  1371.49  1377.90
                             1385.21  1465.54  1508.06  1573.64  1666.53
                             1744.36  1797.09  1823.73  1877.78  1895.13
                             1981.98  2000.23  2044.06  2092.67  2116.20
                             2136.47  2204.26  2237.48  2320.67  2349.24
                             2417.80  2576.58  4378.09  4469.66  4549.57
                             4550.87  4620.58  4712.47  4884.29  5221.18

 Zero-point correction=                           0.161924 (Hartree/Particle)
 Thermal correction to Energy=                    0.174475
 Thermal correction to Enthalpy=                  0.175420
 Thermal correction to Gibbs Free Energy=         0.120643
 Sum of electronic and zero-point Energies=           -719.886899
 Sum of electronic and thermal Energies=              -719.874347
 Sum of electronic and thermal Enthalpies=            -719.873403
 Sum of electronic and thermal Free Energies=         -719.928179

                     E (Thermal)             CV                S
                      KCal/Mol        Cal/Mol-Kelvin    Cal/Mol-Kelvin
 Total                  109.485             46.156            115.286
 Electronic               0.000              0.000              0.000
 Translational            0.889              2.981             41.725
 Rotational               0.889              2.981             31.871
 Vibrational            107.708             40.195             41.691
 Vibration     1          0.593              1.986              6.971
 Vibration     2          0.594              1.981              5.279
 Vibration     3          0.597              1.971              4.311
 Vibration     4          0.601              1.957              3.693
 Vibration     5          0.609              1.933              3.102
 Vibration     6          0.617              1.905              2.702
 Vibration     7          0.637              1.842              2.144
 Vibration     8          0.666              1.753              1.691
 Vibration     9          0.700              1.653              1.359
 Vibration    10          0.726              1.579              1.175
 Vibration    11          0.749              1.514              1.042
 Vibration    12          0.769              1.462              0.949
 Vibration    13          0.800              1.383              0.827
 Vibration    14          0.802              1.377              0.818
 Vibration    15          0.865              1.227              0.633
 Vibration    16          0.875              1.206              0.610
 Vibration    17          0.926              1.097              0.505
 Vibration    18          0.930              1.088              0.497
 Vibration    19          0.977              0.995              0.420

 Optimization completed on the basis of negligible forces.
    -- Stationary point found.
 Normal termination of Gaussian 09 at Fri Aug 27 08:20:46 2021.

 -----------------------------------------------------------------
 #P Geom=AllCheck Guess=TCheck SCRF=Check CCSD(T,E4T,FrzG4)/GTBas1
 -----------------------------------------------------------------

 Structure from the checkpoint file:  "/public/home/users/caep010/.cache/gau_scr/Gau-106921.chk"
 ------
 POQFOS
 ------
 Charge =  0 Multiplicity = 1

 SCF Done:  E(RHF) =  -715.839265134     A.U. after   15 cycles
 E2 =    -0.2075177028D+01 EUMP2 =    -0.71791444216198D+03
 CCSD(T)
 CCSD(T)= -0.71803779683D+03
 MP4SDQ=-717.9541973\CCSD=-717.948821\CCSD(T)=-718.0377968\RMSD=5.557e-
 Normal termination of Gaussian 09 at Fri Aug 27 10:38:00 2021.

 ---------------------------------------------------------
 #P Geom=AllCheck Guess=TCheck SCRF=Check MP4=FrzG4/GTBas2
 ---------------------------------------------------------

 Structure from the checkpoint file:  "/public/home/users/caep010/.cache/gau_scr/Gau-106921.chk"
 ------
 POQFOS
 ------
 Charge =  0 Multiplicity = 1

 SCF Done:  E(RHF) =  -715.858607244     A.U. after   15 cycles
 E2 =    -0.2102349742D+01 EUMP2 =    -0.71796095698584D+03
 Normal termination of Gaussian 09 at Fri Aug 27 11:38:12 2021.

 ---------------------------------------------------------
 #P Geom=AllCheck Guess=TCheck SCRF=Check MP4=FrzG4/GTBas3
 ---------------------------------------------------------

 Structure from the checkpoint file:  "/public/home/users/caep010/.cache/gau_scr/Gau-106921.chk"
 ------
 POQFOS
 ------
 Charge =  0 Multiplicity = 1

 SCF Done:  E(RHF) =  -715.916846909     A.U. after   13 cycles
 E2 =    -0.2491433936D+01 EUMP2 =    -0.71840828084450D+03
 Normal termination of Gaussian 09 at Fri Aug 27 19:03:52 2021.

 -----------------------------------------------------------
 #P Geom=AllCheck Guess=TCheck SCRF=Check MP2=Full/GTLargeXP
 -----------------------------------------------------------

 Structure from the checkpoint file:  "/public/home/users/caep010/.cache/gau_scr/Gau-106921.chk"
 ------
 POQFOS
 ------
 Charge =  0 Multiplicity = 1

 SCF Done:  E(RHF) =  -716.095128143     A.U. after   14 cycles
 E2 =    -0.3264014930D+01 EUMP2 =    -0.71935914307312D+03
 Normal termination of Gaussian 09 at Fri Aug 27 19:20:48 2021.
 SCF Done:  E(RHF) =  -716.152185275     A.U. after   10 cycles
 Normal termination of Gaussian 09 at Fri Aug 27 19:29:15 2021.

                         Standard orientation:
 ---------------------------------------------------------------------
 Center     Atomic      Atomic             Coordinates (Angstroms)
 Number     Number       Type             X           Y           Z
 ---------------------------------------------------------------------
      1          8           0        3.367334   -1.240399   -0.009132
      2          7           0        2.126245   -1.380402   -0.001759
      3          8           0        1.589168   -2.472800    0.003072
      4          6           0        1.305750   -0.183363    0.001007
      5          6           0        1.911005    1.091881   -0.003715
      6          6           0        1.051207    2.200685    0.000034
      7          1           0        1.498702    3.187172   -0.003390
      8          8           0        3.226513    1.307871   -0.011206
      9          1           0        3.645409    0.416255   -0.012709
     10          6           0       -0.083104   -0.356358    0.008849
     11          1           0       -0.495230   -1.352490    0.012587
     12          6           0       -0.909613    0.758286    0.011905
     13          7           0       -2.314295    0.688305    0.020119
     14          6           0       -3.119545   -0.432199    0.010251
     15          6           0       -4.606083   -0.113319   -0.030977
     16          1           0       -5.158194   -1.006575    0.259350
     17          1           0       -4.901143    0.162189   -1.049468
     18          1           0       -4.872878    0.713813    0.634087
     19          1           0       -2.787079    1.578338    0.017567
     20          8           0       -2.689778   -1.568009    0.013784
     21          6           0       -0.317322    2.036773    0.007793
     22          1           0       -0.952920    2.918358    0.010433
 ---------------------------------------------------------------------

 SCF Done:  E(RHF) =  -716.163404467     A.U. after    8 cycles

 The electronic state is 1-A.
 Alpha  occ. eigenvalues --  -20.61531 -20.60506 -20.59656 -20.53976 -15.86426
 Alpha  occ. eigenvalues --  -15.61956 -11.37522 -11.34639 -11.30975 -11.30773
 Alpha  occ. eigenvalues --  -11.28228 -11.26874 -11.26096 -11.25505  -1.61265
 Alpha  occ. eigenvalues --   -1.43438  -1.40682  -1.39941  -1.27694  -1.18691
 Alpha  occ. eigenvalues --   -1.10430  -1.05349  -1.00736  -0.96911  -0.87984
 Alpha  occ. eigenvalues --   -0.86709  -0.81278  -0.78761  -0.75748  -0.73854
 Alpha  occ. eigenvalues --   -0.72993  -0.71794  -0.69293  -0.67613  -0.64275
 Alpha  occ. eigenvalues --   -0.63306  -0.61912  -0.61088  -0.60989  -0.59114
 Alpha  occ. eigenvalues --   -0.57633  -0.56968  -0.54932  -0.51540  -0.50841
 Alpha  occ. eigenvalues --   -0.49628  -0.47098  -0.45280  -0.44418  -0.38614
 Alpha  occ. eigenvalues --   -0.31813
 Alpha virt. eigenvalues --    0.01786   0.02667   0.03170   0.04423   0.04483
 Alpha virt. eigenvalues --    0.05472   0.05662   0.06211   0.06715   0.07115
 Alpha virt. eigenvalues --    0.07440   0.07882   0.08417   0.08528   0.09439

 Mulliken charges:
               1
     1  O   -0.483457
     2  N    0.501595
     3  O   -0.404926
     4  C    0.200442
     5  C    0.191600
     6  C   -0.128345
     7  H    0.240143
     8  O   -0.595217
     9  H    0.441344
    10  C   -0.277859
    11  H    0.316664
    12  C    0.255441
    13  N   -0.480201
    14  C    0.577521
    15  C   -0.595414
    16  H    0.225522
    17  H    0.203702
    18  H    0.188054
    19  H    0.336684
    20  O   -0.614266
    21  C   -0.282632
    22  H    0.183606
 Sum of Mulliken charges =  -0.00000

 Dipole moment (field-independent basis, Debye):
    X=             -4.9984    Y=              5.9967    Z=             -0.0510  Tot=              7.8069
 Quadrupole moment (field-independent basis, Debye-Ang):
   XX=            -75.3242   YY=            -86.1262   ZZ=            -81.6330
   XY=             -6.9345   XZ=              0.2569   YZ=              0.0438

 Normal termination of Gaussian 09 at Fri Aug 27 20:25:38 2021.
