 Gaussian 09, Revision E.01,
 Gaussian 09:  ES64L-G09RevE.01 30-Nov-2015

 ----------------
 #P G4 OPT=calcfc
 ----------------

 --------
 PEMCAM06
 --------
 Symbolic Z-matrix:
 Charge =  0 Multiplicity = 1

 SCF Done:  E(RB3LYP) =  -647.935652721     A.U. after   15 cycles
 SCF Done:  E(RB3LYP) =  -648.064537220     A.U. after   12 cycles
 SCF Done:  E(RB3LYP) =  -648.168118694     A.U. after   14 cycles
 SCF Done:  E(RB3LYP) =  -648.168796995     A.U. after   13 cycles
 SCF Done:  E(RB3LYP) =  -648.148005775     A.U. after   14 cycles
 SCF Done:  E(RB3LYP) =  -648.170178942     A.U. after   10 cycles
 SCF Done:  E(RB3LYP) =  -648.171115427     A.U. after   12 cycles
 SCF Done:  E(RB3LYP) =  -648.170936389     A.U. after   12 cycles
 SCF Done:  E(RB3LYP) =  -648.171243073     A.U. after    9 cycles
 SCF Done:  E(RB3LYP) =  -648.171472900     A.U. after   11 cycles
 SCF Done:  E(RB3LYP) =  -648.172056265     A.U. after   10 cycles
 SCF Done:  E(RB3LYP) =  -648.172056616     A.U. after    7 cycles
 SCF Done:  E(RB3LYP) =  -648.172056696     A.U. after    6 cycles
 Optimization completed.
    -- Stationary point found.
 Normal termination of Gaussian 09 at Wed Aug 25 10:02:25 2021.

 ----------------------------------------------------------
 #P Geom=AllCheck Guess=TCheck SCRF=Check B3LYP/GTBas3 Freq
 ----------------------------------------------------------

 Structure from the checkpoint file:  "/public/home/users/caep010/.cache/gau_scr/Gau-84825.chk"
 --------
 PEMCAM06
 --------
 Charge =  0 Multiplicity = 1

 SCF Done:  E(RB3LYP) =  -648.172056696     A.U. after    1 cycles

  Exact polarizability: 300.856  -6.457 130.346  -0.003   0.006  63.082
 Approx polarizability: 453.746 -22.670 240.029   0.002   0.014 102.089

                      1                      2                      3
                      A                      A                      A
 Frequencies --     38.3781                49.5970                70.6634
 Red. masses --      5.0936                 4.8953                 2.3286
 Frc consts  --      0.0044                 0.0071                 0.0069
 IR Inten    --      0.0183                 0.0195                 0.0829

                      4                      5                      6
                      A                      A                      A
 Frequencies --     79.6764                82.5589               132.4607
 Red. masses --      2.3020                 6.1750                 3.0722
 Frc consts  --      0.0086                 0.0248                 0.0318
 IR Inten    --      2.7032                 0.8856                 2.9761

                      7                      8                      9
                      A                      A                      A
 Frequencies --    166.9117               204.1994               216.4121
 Red. masses --      2.0235                 1.1431                 5.7780
 Frc consts  --      0.0332                 0.0281                 0.1594
 IR Inten    --      0.0015                 0.0005                 0.8815

                     10                     11                     12
                      A                      A                      A
 Frequencies --    236.1865               257.5961               335.2721
 Red. masses --      4.7116                 2.2397                 4.7784
 Frc consts  --      0.1549                 0.0876                 0.3165
 IR Inten    --      0.1270                 0.7166                 0.9434

                     13                     14                     15
                      A                      A                      A
 Frequencies --    389.7186               425.1434               430.4622
 Red. masses --      3.6017                 3.6627                 3.2012
 Frc consts  --      0.3223                 0.3900                 0.3495
 IR Inten    --      2.0234                 1.1324                 0.1708

                     16                     17                     18
                      A                      A                      A
 Frequencies --    483.0896               532.7716               544.9072
 Red. masses --      3.8236                 2.2357                 4.4559
 Frc consts  --      0.5257                 0.3739                 0.7795
 IR Inten    --      4.1354                10.2678                 3.1786

                     19                     20                     21
                      A                      A                      A
 Frequencies --    566.4278               651.0875               720.6157
 Red. masses --      4.5200                 7.0061                 5.8618
 Frc consts  --      0.8544                 1.7499                 1.7934
 IR Inten    --      9.5715                 0.1950                14.6426

                     22                     23                     24
                      A                      A                      A
 Frequencies --    721.0343               767.4744               768.3417
 Red. masses --      3.1377                 5.1473                 6.4562
 Frc consts  --      0.9611                 1.7863                 2.2456
 IR Inten    --      0.0006                 0.0300                 2.3057

                     25                     26                     27
                      A                      A                      A
 Frequencies --    818.3896               836.2778               861.5454
 Red. masses --      1.2675                 1.9184                 1.9147
 Frc consts  --      0.5002                 0.7905                 0.8373
 IR Inten    --      0.6198                55.7597                 6.7199

                     28                     29                     30
                      A                      A                      A
 Frequencies --    873.1696               936.4565               956.0985
 Red. masses --      4.9521                 1.3059                 1.3007
 Frc consts  --      2.2245                 0.6747                 0.7005
 IR Inten    --      3.2751                 0.0599                 0.5236

                     31                     32                     33
                      A                      A                      A
 Frequencies --    968.8711              1000.4919              1016.2531
 Red. masses --      3.1347                 6.0974                 2.8299
 Frc consts  --      1.7337                 3.5960                 1.7220
 IR Inten    --     22.1649               132.4639                 0.3760

                     34                     35                     36
                      A                      A                      A
 Frequencies --   1024.7828              1082.8967              1144.3116
 Red. masses --      1.2358                 1.5222                 1.3179
 Frc consts  --      0.7647                 1.0517                 1.0168
 IR Inten    --     18.5340                25.4856                 0.1342

                     37                     38                     39
                      A                      A                      A
 Frequencies --   1149.4277              1154.9154              1202.7282
 Red. masses --      1.2380                 1.5046                 1.7079
 Frc consts  --      0.9637                 1.1824                 1.4556
 IR Inten    --      0.0004                 3.6214                60.4495

                     40                     41                     42
                      A                      A                      A
 Frequencies --   1208.5697              1240.8780              1277.1384
 Red. masses --      1.2478                 1.2085                 2.8765
 Frc consts  --      1.0739                 1.0964                 2.7643
 IR Inten    --    182.1585                18.7932                33.6679

                     43                     44                     45
                      A                      A                      A
 Frequencies --   1294.2243              1320.9910              1354.2749
 Red. masses --      1.5751                 2.2343                 1.5450
 Frc consts  --      1.5545                 2.2971                 1.6696
 IR Inten    --    106.6578                42.3745                29.7293

                     46                     47                     48
                      A                      A                      A
 Frequencies --   1370.9144              1374.9057              1404.1828
 Red. masses --      4.2457                 6.2304                 3.7625
 Frc consts  --      4.7013                 6.9392                 4.3710
 IR Inten    --     65.4345              1239.0790                12.6211

                     49                     50                     51
                      A                      A                      A
 Frequencies --   1447.4978              1474.1653              1479.7199
 Red. masses --      1.2193                 2.4767                 1.0382
 Frc consts  --      1.5052                 3.1711                 1.3393
 IR Inten    --      3.0861                20.3258                 0.0067

                     52                     53                     54
                      A                      A                      A
 Frequencies --   1488.6448              1493.8772              1518.6947
 Red. masses --      1.0442                 1.2557                 1.1089
 Frc consts  --      1.3634                 1.6510                 1.5069
 IR Inten    --     10.1461                27.6660                 4.5028

                     55                     56                     57
                      A                      A                      A
 Frequencies --   1532.6231              1563.5851              1576.8551
 Red. masses --      1.0925                 2.6834                 5.7003
 Frc consts  --      1.5120                 3.8653                 8.3508
 IR Inten    --     62.8104               276.0328                15.8957

                     58                     59                     60
                      A                      A                      A
 Frequencies --   1600.0813              1650.0507              1684.6038
 Red. masses --     10.7942                 5.5215                 5.7578
 Frc consts  --     16.2826                 8.8573                 9.6273
 IR Inten    --    165.8849               631.4100                78.9737

                     61                     62                     63
                      A                      A                      A
 Frequencies --   3000.6251              3007.5977              3047.8101
 Red. masses --      1.0378                 1.0411                 1.1019
 Frc consts  --      5.5055                 5.5486                 6.0305
 IR Inten    --     75.4313                84.3438                 6.3352

                     64                     65                     66
                      A                      A                      A
 Frequencies --   3049.0871              3134.6567              3147.4145
 Red. masses --      1.1045                 1.0967                 1.0940
 Frc consts  --      6.0502                 6.3489                 6.3853
 IR Inten    --     53.7357                 1.7217                31.5135

                     67                     68                     69
                      A                      A                      A
 Frequencies --   3173.5198              3177.6074              3183.3553
 Red. masses --      1.0887                 1.0875                 1.0879
 Frc consts  --      6.4598                 6.4695                 6.4954
 IR Inten    --      5.7411                 1.3933                 5.7475

                     70                     71                     72
                      A                      A                      A
 Frequencies --   3221.4435              3222.9440              3256.5875
 Red. masses --      1.0906                 1.0906                 1.0931
 Frc consts  --      6.6686                 6.6743                 6.8305
 IR Inten    --      9.9259                10.8974                10.9413

 - Thermochemistry -
 -------------------
 Temperature   298.150 Kelvin.  Pressure   1.00000 Atm.
 Atom     1 has atomic number  7 and mass  14.00307

 Molecular mass:   192.08988 amu.
 Principal axes and moments of inertia in atomic units:
                           1         2         3
     Eigenvalues --   691.560367528.119168196.98319
           X            1.00000   0.00116  -0.00000
           Y           -0.00116   1.00000  -0.00000
           Z            0.00000   0.00000   1.00000
 This molecule is an asymmetric top.
 Rotational symmetry number  1.
 Warning -- assumption of classical behavior for rotation
           may cause significant error
 Rotational temperatures (Kelvin)      0.12524     0.01151     0.01057
 Rotational constants (GHZ):           2.60967     0.23973     0.22017
 Zero-point vibrational energy     549544.9 (Joules/Mol)
                                  131.34438 (Kcal/Mol)
 Warning -- explicit consideration of  19 degrees of freedom as
           vibrations may cause significant error
 Vibrational temperatures:     55.22    71.36   101.67   114.64   118.78
          (Kelvin)            190.58   240.15   293.80   311.37   339.82
                              370.62   482.38   560.72   611.69   619.34
                              695.06   766.54   784.00   814.96   936.77
                             1036.80  1037.41  1104.22  1105.47  1177.48
                             1203.22  1239.57  1256.29  1347.35  1375.61
                             1393.99  1439.48  1462.16  1474.43  1558.04
                             1646.41  1653.77  1661.66  1730.46  1738.86
                             1785.34  1837.51  1862.10  1900.61  1948.50
                             1972.44  1978.18  2020.30  2082.62  2120.99
                             2128.98  2141.83  2149.35  2185.06  2205.10
                             2249.65  2268.74  2302.16  2374.05  2423.77
                             4317.22  4327.26  4385.11  4386.95  4510.07
                             4528.42  4565.98  4571.86  4580.13  4634.93
                             4637.09  4685.50

 Zero-point correction=                           0.209311 (Hartree/Particle)
 Thermal correction to Energy=                    0.222882
 Thermal correction to Enthalpy=                  0.223826
 Thermal correction to Gibbs Free Energy=         0.167554
 Sum of electronic and zero-point Energies=           -647.962746
 Sum of electronic and thermal Energies=              -647.949175
 Sum of electronic and thermal Enthalpies=            -647.948230
 Sum of electronic and thermal Free Energies=         -648.004502

                     E (Thermal)             CV                S
                      KCal/Mol        Cal/Mol-Kelvin    Cal/Mol-Kelvin
 Total                  139.861             49.344            118.434
 Electronic               0.000              0.000              0.000
 Translational            0.889              2.981             41.664
 Rotational               0.889              2.981             32.123
 Vibrational            138.083             43.382             44.647
 Vibration     1          0.594              1.982              5.341
 Vibration     2          0.595              1.978              4.833
 Vibration     3          0.598              1.968              4.135
 Vibration     4          0.600              1.963              3.899
 Vibration     5          0.600              1.961              3.829
 Vibration     6          0.613              1.921              2.910
 Vibration     7          0.624              1.883              2.470
 Vibration     8          0.640              1.834              2.095
 Vibration     9          0.645              1.816              1.989
 Vibration    10          0.655              1.785              1.831
 Vibration    11          0.667              1.750              1.678
 Vibration    12          0.716              1.605              1.235
 Vibration    13          0.758              1.492              1.001
 Vibration    14          0.787              1.416              0.875
 Vibration    15          0.792              1.404              0.857
 Vibration    16          0.839              1.288              0.702
 Vibration    17          0.888              1.178              0.581
 Vibration    18          0.900              1.151              0.555
 Vibration    19          0.922              1.104              0.511

 Normal termination of Gaussian 09 at Wed Aug 25 10:06:35 2021.

 -----------------------------------------------------------------
 #P Geom=AllCheck Guess=TCheck SCRF=Check CCSD(T,E4T,FrzG4)/GTBas1
 -----------------------------------------------------------------

 Structure from the checkpoint file:  "/public/home/users/caep010/.cache/gau_scr/Gau-84825.chk"
 --------
 PEMCAM06
 --------
 Charge =  0 Multiplicity = 1

 SCF Done:  E(RHF) =  -644.136116841     A.U. after   15 cycles
 E2 =    -0.1977122995D+01 EUMP2 =    -0.64611323983632D+03
 CCSD(T)
 CCSD(T)= -0.64626297334D+03
 9\CCSD(T)=-646.2629733\RMSD=5.480e-09\PG=C01 [X(C10H12N2O2)]\\@
 Normal termination of Gaussian 09 at Wed Aug 25 12:42:39 2021.

 ---------------------------------------------------------
 #P Geom=AllCheck Guess=TCheck SCRF=Check MP4=FrzG4/GTBas2
 ---------------------------------------------------------

 Structure from the checkpoint file:  "/public/home/users/caep010/.cache/gau_scr/Gau-84825.chk"
 --------
 PEMCAM06
 --------
 Charge =  0 Multiplicity = 1

 SCF Done:  E(RHF) =  -644.153989382     A.U. after   15 cycles
 E2 =    -0.2000985172D+01 EUMP2 =    -0.64615497455402D+03
 Normal termination of Gaussian 09 at Wed Aug 25 13:55:15 2021.

 ---------------------------------------------------------
 #P Geom=AllCheck Guess=TCheck SCRF=Check MP4=FrzG4/GTBas3
 ---------------------------------------------------------

 Structure from the checkpoint file:  "/public/home/users/caep010/.cache/gau_scr/Gau-84825.chk"
 --------
 PEMCAM06
 --------
 Charge =  0 Multiplicity = 1

 SCF Done:  E(RHF) =  -644.202886993     A.U. after   13 cycles
 E2 =    -0.2378247375D+01 EUMP2 =    -0.64658113436788D+03
 Normal termination of Gaussian 09 at Thu Aug 26 00:22:57 2021.

 -----------------------------------------------------------
 #P Geom=AllCheck Guess=TCheck SCRF=Check MP2=Full/GTLargeXP
 -----------------------------------------------------------

 Structure from the checkpoint file:  "/public/home/users/caep010/.cache/gau_scr/Gau-84825.chk"
 --------
 PEMCAM06
 --------
 Charge =  0 Multiplicity = 1

 SCF Done:  E(RHF) =  -644.353763089     A.U. after   14 cycles
 E2 =    -0.3130173782D+01 EUMP2 =    -0.64748393687095D+03
 Normal termination of Gaussian 09 at Thu Aug 26 00:41:40 2021.
 SCF Done:  E(RHF) =  -644.405169091     A.U. after    9 cycles
 Normal termination of Gaussian 09 at Thu Aug 26 00:50:07 2021.

                         Standard orientation:
 ---------------------------------------------------------------------
 Center     Atomic      Atomic             Coordinates (Angstroms)
 Number     Number       Type             X           Y           Z
 ---------------------------------------------------------------------
      1          7           0       -3.684885   -0.126523   -0.000249
      2          6           0       -4.296204   -1.443282    0.000439
      3          6           0       -2.319283    0.003475   -0.000130
      4          6           0       -1.471299   -1.132728   -0.000180
      5          6           0       -0.098866   -0.998342   -0.000117
      6          6           0        0.523729    0.264426    0.000000
      7          1           0       -1.896015   -2.127414   -0.000304
      8          1           0       -5.380781   -1.335166    0.000987
      9          1           0       -4.014757   -2.024586    0.888352
     10          1           0        0.507274   -1.898100   -0.000160
     11          6           0       -0.321323    1.387645    0.000104
     12          1           0        0.123505    2.378301    0.000260
     13          1           0       -4.015664   -2.025135   -0.887374
     14          6           0       -1.698287    1.273800    0.000049
     15          1           0       -2.296669    2.174607    0.000214
     16          6           0       -4.529473    1.054154   -0.000193
     17          1           0       -5.575406    0.747782   -0.001339
     18          1           0       -4.358749    1.677718   -0.887496
     19          1           0       -4.360312    1.676764    0.888187
     20          6           0        1.956038    0.458236    0.000044
     21          6           0        2.912622   -0.482410   -0.000064
     22          7           0        4.308190   -0.114547    0.000010
     23          8           0        4.622616    1.074064    0.000172
     24          1           0        2.785575   -1.553855   -0.000206
     25          1           0        2.312024    1.485286    0.000178
     26          8           0        5.109999   -1.048884   -0.000089
 ---------------------------------------------------------------------

 SCF Done:  E(RHF) =  -644.415032978     A.U. after    7 cycles

 The electronic state is 1-A.
 Alpha  occ. eigenvalues --  -20.57927 -20.57526 -15.83151 -15.59548 -11.30972
 Alpha  occ. eigenvalues --  -11.28278 -11.27878 -11.27844 -11.27776 -11.26320
 Alpha  occ. eigenvalues --  -11.26283 -11.24988 -11.24390 -11.24109  -1.57915
 Alpha  occ. eigenvalues --   -1.37292  -1.28526  -1.17314  -1.12046  -1.04678
 Alpha  occ. eigenvalues --   -1.04125  -0.99252  -0.96291  -0.89969  -0.85217
 Alpha  occ. eigenvalues --   -0.81667  -0.78528  -0.73960  -0.73441  -0.70907
 Alpha  occ. eigenvalues --   -0.69668  -0.67410  -0.66951  -0.66134  -0.64455
 Alpha  occ. eigenvalues --   -0.60994  -0.60842  -0.58375  -0.58074  -0.56447
 Alpha  occ. eigenvalues --   -0.55221  -0.54650  -0.53708  -0.49974  -0.47977
 Alpha  occ. eigenvalues --   -0.47346  -0.46175  -0.43641  -0.39668  -0.36377
 Alpha  occ. eigenvalues --   -0.29101
 Alpha virt. eigenvalues --    0.02374   0.02813   0.03624   0.03882   0.04164
 Alpha virt. eigenvalues --    0.04511   0.05306   0.06084   0.06116   0.06454
 Alpha virt. eigenvalues --    0.06672   0.07267   0.08028   0.08167   0.08933

 Mulliken charges:
               1
     1  N   -0.000030
     2  C   -0.551689
     3  C    0.207214
     4  C   -0.285513
     5  C   -0.243937
     6  C    0.317898
     7  H    0.203145
     8  H    0.200577
     9  H    0.179855
    10  H    0.197799
    11  C   -0.235136
    12  H    0.202287
    13  H    0.179830
    14  C   -0.293415
    15  H    0.201471
    16  C   -0.552234
    17  H    0.200033
    18  H    0.180199
    19  H    0.180156
    20  C   -0.105882
    21  C   -0.309615
    22  N    0.575589
    23  O   -0.464718
    24  H    0.233637
    25  H    0.243210
    26  O   -0.460732
 Sum of Mulliken charges =  -0.00000

 Dipole moment (field-independent basis, Debye):
    X=            -10.0095    Y=             -0.3559    Z=              0.0003  Tot=             10.0158
 Quadrupole moment (field-independent basis, Debye-Ang):
   XX=           -104.5094   YY=            -77.5065   ZZ=            -87.0273
   XY=              0.0857   XZ=             -0.0017   YZ=             -0.0003

 Normal termination of Gaussian 09 at Thu Aug 26 01:44:04 2021.
