 Gaussian 09, Revision E.01,
 Gaussian 09:  ES64L-G09RevE.01 30-Nov-2015

 ----------------
 #P G4 OPT=calcfc
 ----------------

 ------
 QIKDAP
 ------
 Symbolic Z-matrix:
 Charge =  0 Multiplicity = 1

 SCF Done:  E(RB3LYP) =  -547.330082025     A.U. after   15 cycles
 SCF Done:  E(RB3LYP) =  -547.449978415     A.U. after   13 cycles
 SCF Done:  E(RB3LYP) =  -547.512986534     A.U. after   14 cycles
 SCF Done:  E(RB3LYP) =  -547.514178709     A.U. after   13 cycles
 SCF Done:  E(RB3LYP) =  -547.514254159     A.U. after   12 cycles
 SCF Done:  E(RB3LYP) =  -547.514282746     A.U. after   12 cycles
 SCF Done:  E(RB3LYP) =  -547.514289541     A.U. after   10 cycles
 SCF Done:  E(RB3LYP) =  -547.514292153     A.U. after    9 cycles
 SCF Done:  E(RB3LYP) =  -547.514289702     A.U. after    9 cycles
 SCF Done:  E(RB3LYP) =  -547.514289548     A.U. after    9 cycles
 SCF Done:  E(RB3LYP) =  -547.514976089     A.U. after    8 cycles
 SCF Done:  E(RB3LYP) =  -547.514976546     A.U. after    9 cycles
 SCF Done:  E(RB3LYP) =  -547.514977480     A.U. after    8 cycles
 Optimization completed.
    -- Stationary point found.
 Normal termination of Gaussian 09 at Thu Aug 26 22:52:58 2021.

 ----------------------------------------------------------
 #P Geom=AllCheck Guess=TCheck SCRF=Check B3LYP/GTBas3 Freq
 ----------------------------------------------------------

 Structure from the checkpoint file:  "/public/home/users/caep010/.cache/gau_scr/Gau-51711.chk"
 ------
 QIKDAP
 ------
 Charge =  0 Multiplicity = 1

 SCF Done:  E(RB3LYP) =  -547.514977480     A.U. after    1 cycles

  Exact polarizability: 151.410   2.122 110.315  -0.112  -0.132  39.789
 Approx polarizability: 260.480   6.841 206.998   1.889   0.252  65.527

                      1                      2                      3
                      A                      A                      A
 Frequencies --     79.3127                98.2899               204.3946
 Red. masses --     11.6654                 5.7707                 4.9802
 Frc consts  --      0.0432                 0.0328                 0.1226
 IR Inten    --      1.3903                 2.2086                12.5615

                      4                      5                      6
                      A                      A                      A
 Frequencies --    237.0488               263.0247               299.4291
 Red. masses --      1.2758                 4.8736                 4.0842
 Frc consts  --      0.0422                 0.1987                 0.2157
 IR Inten    --    132.4270                 7.0581                46.7026

                      7                      8                      9
                      A                      A                      A
 Frequencies --    355.0585               369.2082               376.8259
 Red. masses --      2.7432                 7.6523                 1.1320
 Frc consts  --      0.2038                 0.6146                 0.0947
 IR Inten    --     23.2272                 1.5195                10.2074

                     10                     11                     12
                      A                      A                      A
 Frequencies --    427.9825               448.4473               479.7049
 Red. masses --      4.2764                 2.3366                 1.5175
 Frc consts  --      0.4615                 0.2769                 0.2057
 IR Inten    --      4.1555                77.9886               327.0384

                     13                     14                     15
                      A                      A                      A
 Frequencies --    540.3310               585.3354               603.4438
 Red. masses --      5.0709                 1.6932                 1.8462
 Frc consts  --      0.8723                 0.3418                 0.3961
 IR Inten    --      0.7302                12.0655                 7.3549

                     16                     17                     18
                      A                      A                      A
 Frequencies --    638.2651               658.4831               708.2671
 Red. masses --      5.2975                 4.3969                 2.7023
 Frc consts  --      1.2715                 1.1233                 0.7987
 IR Inten    --      4.1290                 3.3560                 2.4358

                     19                     20                     21
                      A                      A                      A
 Frequencies --    762.6173               771.3658               814.6684
 Red. masses --      5.4651                 2.5527                 2.4067
 Frc consts  --      1.8727                 0.8949                 0.9411
 IR Inten    --      1.8926                20.9315                 1.2318

                     22                     23                     24
                      A                      A                      A
 Frequencies --    833.9479               853.9458               966.5467
 Red. masses --      1.9640                 8.5504                 1.2928
 Frc consts  --      0.8048                 3.6736                 0.7116
 IR Inten    --     37.7271                12.7323                 0.7215

                     25                     26                     27
                      A                      A                      A
 Frequencies --    978.8739              1058.8413              1121.1828
 Red. masses --      2.7187                 1.5489                 2.5639
 Frc consts  --      1.5349                 1.0231                 1.8989
 IR Inten    --     10.5269                 1.0425                79.0290

                     28                     29                     30
                      A                      A                      A
 Frequencies --   1125.8381              1189.3849              1261.8331
 Red. masses --      1.3484                 1.5443                 2.0919
 Frc consts  --      1.0069                 1.2872                 1.9625
 IR Inten    --      4.5159                17.6110                 8.9407

                     31                     32                     33
                      A                      A                      A
 Frequencies --   1303.0115              1323.3318              1389.6004
 Red. masses --      1.6282                 6.4276                 3.5980
 Frc consts  --      1.6287                 6.6319                 4.0934
 IR Inten    --      2.5095               599.0681               106.4653

                     34                     35                     36
                      A                      A                      A
 Frequencies --   1414.3830              1491.4044              1530.5646
 Red. masses --      4.6385                 3.3991                 2.8971
 Frc consts  --      5.4672                 4.4546                 3.9987
 IR Inten    --     17.3711                89.5126                49.2715

                     37                     38                     39
                      A                      A                      A
 Frequencies --   1559.6537              1611.1123              1616.6657
 Red. masses --      4.6808                 6.2961                 1.6643
 Frc consts  --      6.7086                 9.6288                 2.5628
 IR Inten    --    126.1612               211.1526                67.7285

                     40                     41                     42
                      A                      A                      A
 Frequencies --   1657.1108              1672.2251              3158.8885
 Red. masses --      1.3632                 4.0123                 1.0890
 Frc consts  --      2.2055                 6.6105                 6.4026
 IR Inten    --     61.7852               466.5885                15.1559

                     43                     44                     45
                      A                      A                      A
 Frequencies --   3186.7765              3236.6536              3559.3052
 Red. masses --      1.0894                 1.0915                 1.0479
 Frc consts  --      6.5186                 6.7373                 7.8220
 IR Inten    --      8.0435                 2.5512                87.9120

                     46                     47                     48
                      A                      A                      A
 Frequencies --   3587.4217              3693.9695              3722.1643
 Red. masses --      1.0465                 1.1000                 1.1007
 Frc consts  --      7.9355                 8.8436                 8.9850
 IR Inten    --     51.2601                20.4553                65.9331

 - Thermochemistry -
 -------------------
 Temperature   298.150 Kelvin.  Pressure   1.00000 Atm.
 Atom     1 has atomic number  6 and mass  12.00000

 Molecular mass:   153.05383 amu.
 Principal axes and moments of inertia in atomic units:
                           1         2         3
     Eigenvalues --   777.937492229.523693005.89520
           X            0.99993   0.01140  -0.00298
           Y           -0.01141   0.99993  -0.00235
           Z            0.00295   0.00238   0.99999
 This molecule is an asymmetric top.
 Rotational symmetry number  1.
 Warning -- assumption of classical behavior for rotation
           may cause significant error
 Rotational temperatures (Kelvin)      0.11134     0.03885     0.02881
 Rotational constants (GHZ):           2.31991     0.80947     0.60040
 Zero-point vibrational energy     357839.8 (Joules/Mol)
                                   85.52576 (Kcal/Mol)
 Warning -- explicit consideration of  15 degrees of freedom as
           vibrations may cause significant error
 Vibrational temperatures:    114.11   141.42   294.08   341.06   378.43
          (Kelvin)            430.81   510.85   531.21   542.17   615.77
                              645.21   690.19   777.41   842.17   868.22
                              918.32   947.41  1019.04  1097.23  1109.82
                             1172.12  1199.86  1228.64  1390.64  1408.38
                             1523.43  1613.13  1619.83  1711.26  1815.49
                             1874.74  1903.98  1999.32  2034.98  2145.80
                             2202.14  2243.99  2318.03  2326.02  2384.21
                             2405.96  4544.93  4585.05  4656.82  5121.04
                             5161.49  5314.79  5355.36

 Zero-point correction=                           0.136294 (Hartree/Particle)
 Thermal correction to Energy=                    0.145939
 Thermal correction to Enthalpy=                  0.146883
 Thermal correction to Gibbs Free Energy=         0.101644
 Sum of electronic and zero-point Energies=           -547.378684
 Sum of electronic and thermal Energies=              -547.369039
 Sum of electronic and thermal Enthalpies=            -547.368095
 Sum of electronic and thermal Free Energies=         -547.413333

                     E (Thermal)             CV                S
                      KCal/Mol        Cal/Mol-Kelvin    Cal/Mol-Kelvin
 Total                   91.578             37.641             95.213
 Electronic               0.000              0.000              0.000
 Translational            0.889              2.981             40.987
 Rotational               0.889              2.981             30.034
 Vibrational             89.800             31.679             24.192
 Vibration     1          0.600              1.963              3.908
 Vibration     2          0.604              1.950              3.488
 Vibration     3          0.640              1.834              2.093
 Vibration     4          0.656              1.784              1.825
 Vibration     5          0.670              1.741              1.642
 Vibration     6          0.692              1.675              1.420
 Vibration     7          0.731              1.565              1.144
 Vibration     8          0.742              1.536              1.083
 Vibration     9          0.747              1.520              1.052
 Vibration    10          0.789              1.409              0.865
 Vibration    11          0.807              1.364              0.800
 Vibration    12          0.836              1.295              0.711
 Vibration    13          0.895              1.161              0.565
 Vibration    14          0.942              1.063              0.476
 Vibration    15          0.962              1.024              0.444

 Normal termination of Gaussian 09 at Thu Aug 26 22:54:53 2021.

 -----------------------------------------------------------------
 #P Geom=AllCheck Guess=TCheck SCRF=Check CCSD(T,E4T,FrzG4)/GTBas1
 -----------------------------------------------------------------

 Structure from the checkpoint file:  "/public/home/users/caep010/.cache/gau_scr/Gau-51711.chk"
 ------
 QIKDAP
 ------
 Charge =  0 Multiplicity = 1

 SCF Done:  E(RHF) =  -544.233846247     A.U. after   14 cycles
 E2 =    -0.1622001365D+01 EUMP2 =    -0.54585584761203D+03
 CCSD(T)
 CCSD(T)= -0.54595785488D+03
 \MP4SDTQ=-545.9708001\MP4SDQ=-545.890142\CCSD=-545.8871102\CCSD(T)=-54
 Normal termination of Gaussian 09 at Thu Aug 26 23:32:57 2021.

 ---------------------------------------------------------
 #P Geom=AllCheck Guess=TCheck SCRF=Check MP4=FrzG4/GTBas2
 ---------------------------------------------------------

 Structure from the checkpoint file:  "/public/home/users/caep010/.cache/gau_scr/Gau-51711.chk"
 ------
 QIKDAP
 ------
 Charge =  0 Multiplicity = 1

 SCF Done:  E(RHF) =  -544.251459411     A.U. after   17 cycles
 E2 =    -0.1644679674D+01 EUMP2 =    -0.54589613908485D+03
 Normal termination of Gaussian 09 at Thu Aug 26 23:44:57 2021.

 ---------------------------------------------------------
 #P Geom=AllCheck Guess=TCheck SCRF=Check MP4=FrzG4/GTBas3
 ---------------------------------------------------------

 Structure from the checkpoint file:  "/public/home/users/caep010/.cache/gau_scr/Gau-51711.chk"
 ------
 QIKDAP
 ------
 Charge =  0 Multiplicity = 1

 SCF Done:  E(RHF) =  -544.297142209     A.U. after   13 cycles
 E2 =    -0.1941011959D+01 EUMP2 =    -0.54623815416872D+03
 Normal termination of Gaussian 09 at Fri Aug 27 01:22:16 2021.

 -----------------------------------------------------------
 #P Geom=AllCheck Guess=TCheck SCRF=Check MP2=Full/GTLargeXP
 -----------------------------------------------------------

 Structure from the checkpoint file:  "/public/home/users/caep010/.cache/gau_scr/Gau-51711.chk"
 ------
 QIKDAP
 ------
 Charge =  0 Multiplicity = 1

 SCF Done:  E(RHF) =  -544.432863686     A.U. after   14 cycles
 E2 =    -0.2545074482D+01 EUMP2 =    -0.54697793816777D+03
 Normal termination of Gaussian 09 at Fri Aug 27 01:35:35 2021.
 SCF Done:  E(RHF) =  -544.476490940     A.U. after   10 cycles
 Normal termination of Gaussian 09 at Fri Aug 27 01:40:20 2021.

                         Standard orientation:
 ---------------------------------------------------------------------
 Center     Atomic      Atomic             Coordinates (Angstroms)
 Number     Number       Type             X           Y           Z
 ---------------------------------------------------------------------
      1          6           0       -2.161547   -0.137778   -0.009278
      2          6           0       -1.406976    1.030814   -0.001551
      3          6           0       -0.000461    1.019565    0.007530
      4          6           0        0.639037   -0.254000    0.006829
      5          6           0       -0.130193   -1.428057    0.004091
      6          1           0        0.403574   -2.368555    0.006635
      7          6           0       -1.500922   -1.389995   -0.003824
      8          7           0       -3.538528   -0.090393   -0.070620
      9          7           0        0.681009    2.191797    0.045363
     10          7           0        2.068508   -0.400785   -0.000997
     11          8           0        2.782023    0.618276   -0.024406
     12          8           0        2.546049   -1.532949    0.012142
     13          1           0       -1.912165    1.992743   -0.001088
     14          1           0       -2.078992   -2.307289   -0.012823
     15          1           0       -4.033579   -0.915726    0.228048
     16          1           0       -3.982161    0.769950    0.209847
     17          1           0        0.184769    3.050724   -0.111296
     18          1           0        1.683427    2.147914   -0.060213
 ---------------------------------------------------------------------

 SCF Done:  E(RHF) =  -544.484958449     A.U. after    8 cycles

 The electronic state is 1-A.
 Alpha  occ. eigenvalues --  -20.58021 -20.57831 -15.83881 -15.59291 -15.57997
 Alpha  occ. eigenvalues --  -11.32736 -11.31721 -11.27854 -11.26827 -11.23489
 Alpha  occ. eigenvalues --  -11.23407  -1.58158  -1.37327  -1.26432  -1.24630
 Alpha  occ. eigenvalues --   -1.15054  -1.06720  -1.02183  -0.93113  -0.86140
 Alpha  occ. eigenvalues --   -0.83285  -0.76122  -0.74506  -0.73504  -0.70957
 Alpha  occ. eigenvalues --   -0.70336  -0.68712  -0.65965  -0.61868  -0.60414
 Alpha  occ. eigenvalues --   -0.59229  -0.56995  -0.52749  -0.51724  -0.48377
 Alpha  occ. eigenvalues --   -0.47532  -0.45239  -0.43696  -0.33762  -0.31517
 Alpha virt. eigenvalues --    0.02446   0.03386   0.04388   0.05248   0.05688
 Alpha virt. eigenvalues --    0.06488   0.06551   0.07693   0.08137   0.08329
 Alpha virt. eigenvalues --    0.08788   0.09193   0.09653   0.10125   0.10322

 Mulliken charges:
               1
     1  C    0.303806
     2  C   -0.267786
     3  C    0.306661
     4  C    0.105771
     5  C   -0.168986
     6  H    0.260081
     7  C   -0.274041
     8  N   -0.705157
     9  N   -0.756460
    10  N    0.473015
    11  O   -0.476548
    12  O   -0.461678
    13  H    0.140478
    14  H    0.184704
    15  H    0.318575
    16  H    0.315927
    17  H    0.321534
    18  H    0.380106
 Sum of Mulliken charges =  -0.00000

 Dipole moment (field-independent basis, Debye):
    X=             -6.6135    Y=              2.0254    Z=              0.4759  Tot=              6.9330
 Quadrupole moment (field-independent basis, Debye-Ang):
   XX=            -65.2197   YY=            -54.5760   ZZ=            -68.0533
   XY=              3.5499   XZ=             -4.0073   YZ=             -1.1870

 Normal termination of Gaussian 09 at Fri Aug 27 02:13:00 2021.
