 Gaussian 09, Revision E.01,
 Gaussian 09:  ES64L-G09RevE.01 30-Nov-2015

 ----------------
 #P G4 OPT=calcfc
 ----------------

 ------
 QAQPIH
 ------
 Symbolic Z-matrix:
 Charge =  0 Multiplicity = 1

 SCF Done:  E(RB3LYP) =  -714.805811786     A.U. after   16 cycles
 SCF Done:  E(RB3LYP) =  -714.852355653     A.U. after   14 cycles
 SCF Done:  E(RB3LYP) =  -714.860101617     A.U. after   14 cycles
 SCF Done:  E(RB3LYP) =  -714.860608423     A.U. after   12 cycles
 SCF Done:  E(RB3LYP) =  -714.860627883     A.U. after   11 cycles
 SCF Done:  E(RB3LYP) =  -714.860629768     A.U. after   10 cycles
 SCF Done:  E(RB3LYP) =  -714.860629981     A.U. after    8 cycles
 Optimization completed.
    -- Stationary point found.
 Normal termination of Gaussian 09 at Thu Aug 26 15:19:34 2021.

 ----------------------------------------------------------
 #P Geom=AllCheck Guess=TCheck SCRF=Check B3LYP/GTBas3 Freq
 ----------------------------------------------------------

 Structure from the checkpoint file:  "/public/home/users/caep010/.cache/gau_scr/Gau-55573.chk"
 ------
 QAQPIH
 ------
 Charge =  0 Multiplicity = 1

 SCF Done:  E(RB3LYP) =  -714.860629981     A.U. after    2 cycles

  Exact polarizability: 131.075   9.235  92.054  -4.874   2.430  85.254
 Approx polarizability: 218.076  27.064 152.984 -12.394  15.308 156.023

                      1                      2                      3
                      A                      A                      A
 Frequencies --     44.7565                71.6231               111.4640
 Red. masses --      6.9077                15.4180                 7.6163
 Frc consts  --      0.0082                 0.0466                 0.0558
 IR Inten    --      2.9388                 0.1846                 3.5977

                      4                      5                      6
                      A                      A                      A
 Frequencies --    131.2460               154.5181               172.0927
 Red. masses --      7.1774                11.2251                 5.5030
 Frc consts  --      0.0728                 0.1579                 0.0960
 IR Inten    --      6.1202                 5.2156                 2.2084

                      7                      8                      9
                      A                      A                      A
 Frequencies --    195.4396               237.5220               240.2080
 Red. masses --      5.0768                 1.0583                 6.5283
 Frc consts  --      0.1143                 0.0352                 0.2219
 IR Inten    --      4.8919                 0.1724                 2.1157

                     10                     11                     12
                      A                      A                      A
 Frequencies --    277.9131               286.7474               328.7811
 Red. masses --      1.1486                 3.2199                 3.4331
 Frc consts  --      0.0523                 0.1560                 0.2186
 IR Inten    --      0.7065                 4.6156                 1.2467

                     13                     14                     15
                      A                      A                      A
 Frequencies --    357.8074               373.6720               388.0444
 Red. masses --      5.4686                 4.6502                 6.7267
 Frc consts  --      0.4125                 0.3826                 0.5968
 IR Inten    --      0.0910                 2.5153                 0.9899

                     16                     17                     18
                      A                      A                      A
 Frequencies --    460.6891               481.1930               498.8023
 Red. masses --     10.2823                10.7770                 6.4582
 Frc consts  --      1.2858                 1.4702                 0.9467
 IR Inten    --      0.8103                 4.6954                 3.3086

                     19                     20                     21
                      A                      A                      A
 Frequencies --    516.7857               605.8094               637.4200
 Red. masses --     13.3554                10.8014                 6.0317
 Frc consts  --      2.1015                 2.3356                 1.4439
 IR Inten    --      0.7646                 2.8088                 5.0039

                     22                     23                     24
                      A                      A                      A
 Frequencies --    649.1264               680.8746               731.8158
 Red. masses --      6.3976                 7.4961                 6.2293
 Frc consts  --      1.5883                 2.0475                 1.9656
 IR Inten    --      1.9971                 0.7145                 3.1701

                     25                     26                     27
                      A                      A                      A
 Frequencies --    796.2419               832.2439               894.9698
 Red. masses --      6.3542                 7.2457                 8.1826
 Frc consts  --      2.3736                 2.9569                 3.8615
 IR Inten    --     14.4908                31.4834                 2.5381

                     28                     29                     30
                      A                      A                      A
 Frequencies --    927.9697               956.5322               969.5735
 Red. masses --     11.5133                 2.1958                 1.6800
 Frc consts  --      5.8414                 1.1837                 0.9305
 IR Inten    --    131.7891                 5.1356                 1.0761

                     31                     32                     33
                      A                      A                      A
 Frequencies --   1038.5392              1071.0960              1132.9683
 Red. masses --      1.3486                 6.1353                 2.7363
 Frc consts  --      0.8570                 4.1471                 2.0694
 IR Inten    --      1.6664                25.5750                44.8681

                     34                     35                     36
                      A                      A                      A
 Frequencies --   1177.9094              1217.2446              1240.2629
 Red. masses --      3.6208                 5.5965                 3.2756
 Frc consts  --      2.9599                 4.8857                 2.9688
 IR Inten    --      0.8758                 5.5915                 6.7767

                     37                     38                     39
                      A                      A                      A
 Frequencies --   1303.0555              1396.2758              1408.8782
 Red. masses --      5.8409                 8.3003                 1.2404
 Frc consts  --      5.8433                 9.5342                 1.4507
 IR Inten    --     14.8207               104.9859                 1.9126

                     40                     41                     42
                      A                      A                      A
 Frequencies --   1432.4540              1477.6882              1488.1226
 Red. masses --      1.2174                 1.0468                 1.0453
 Frc consts  --      1.4718                 1.3467                 1.3638
 IR Inten    --      9.4312                 5.6534                 1.5821

                     43                     44                     45
                      A                      A                      A
 Frequencies --   1497.9255              1514.0799              1652.1281
 Red. masses --      1.0555                 1.0591                12.5908
 Frc consts  --      1.3953                 1.4305                20.2484
 IR Inten    --     17.9948                20.7759                11.7565

                     46                     47                     48
                      A                      A                      A
 Frequencies --   1696.9599              2354.0184              2375.5315
 Red. masses --     13.9574                12.6735                12.6952
 Frc consts  --     23.6809                41.3777                42.2095
 IR Inten    --    221.1149                 1.0055                 1.1660

                     49                     50                     51
                      A                      A                      A
 Frequencies --   3051.6736              3058.3642              3131.6692
 Red. masses --      1.0339                 1.0346                 1.1031
 Frc consts  --      5.6728                 5.7019                 6.3740
 IR Inten    --      3.5693                 2.8703                 2.2132

                     52                     53                     54
                      A                      A                      A
 Frequencies --   3135.4421              3135.8709              3143.2862
 Red. masses --      1.1036                 1.1026                 1.1037
 Frc consts  --      6.3924                 6.3884                 6.4247
 IR Inten    --      4.5624                 7.1561                 3.4794

 - Thermochemistry -
 -------------------
 Temperature   298.150 Kelvin.  Pressure   1.00000 Atm.
 Atom     1 has atomic number  8 and mass  15.99491

 Molecular mass:   194.04399 amu.
 Principal axes and moments of inertia in atomic units:
                           1         2         3
     Eigenvalues --  1572.171932990.670743287.89597
           X            0.99989  -0.01056  -0.01060
           Y            0.01098   0.99915   0.03969
           Z            0.01017  -0.03980   0.99916
 This molecule is an asymmetric top.
 Rotational symmetry number  1.
 Warning -- assumption of classical behavior for rotation
           may cause significant error
 Rotational temperatures (Kelvin)      0.05509     0.02896     0.02634
 Rotational constants (GHZ):           1.14793     0.60346     0.54890
 Zero-point vibrational energy     353755.6 (Joules/Mol)
                                   84.54963 (Kcal/Mol)
 Warning -- explicit consideration of  20 degrees of freedom as
           vibrations may cause significant error
 Vibrational temperatures:     64.39   103.05   160.37   188.83   222.32
          (Kelvin)            247.60   281.19   341.74   345.61   399.85
                              412.56   473.04   514.80   537.63   558.31
                              662.83   692.33   717.66   743.54   871.62
                              917.10   933.95   979.63  1052.92  1145.61
                             1197.41  1287.66  1335.14  1376.23  1395.00
                             1494.22  1541.07  1630.09  1694.75  1751.34
                             1784.46  1874.80  2008.93  2027.06  2060.98
                             2126.06  2141.07  2155.18  2178.42  2377.04
                             2441.54  3386.90  3417.86  4390.67  4400.30
                             4505.77  4511.20  4511.81  4522.48

 Zero-point correction=                           0.134738 (Hartree/Particle)
 Thermal correction to Energy=                    0.147799
 Thermal correction to Enthalpy=                  0.148744
 Thermal correction to Gibbs Free Energy=         0.095362
 Sum of electronic and zero-point Energies=           -714.725892
 Sum of electronic and thermal Energies=              -714.712830
 Sum of electronic and thermal Enthalpies=            -714.711886
 Sum of electronic and thermal Free Energies=         -714.765268

                     E (Thermal)             CV                S
                      KCal/Mol        Cal/Mol-Kelvin    Cal/Mol-Kelvin
 Total                   92.746             47.597            112.351
 Electronic               0.000              0.000              0.000
 Translational            0.889              2.981             41.694
 Rotational               0.889              2.981             31.114
 Vibrational             90.968             41.635             39.543
 Vibration     1          0.595              1.979              5.037
 Vibration     2          0.598              1.968              4.108
 Vibration     3          0.607              1.940              3.243
 Vibration     4          0.612              1.922              2.928
 Vibration     5          0.620              1.898              2.616
 Vibration     6          0.626              1.877              2.413
 Vibration     7          0.636              1.846              2.176
 Vibration     8          0.656              1.783              1.821
 Vibration     9          0.657              1.779              1.801
 Vibration    10          0.679              1.714              1.546
 Vibration    11          0.684              1.698              1.493
 Vibration    12          0.712              1.618              1.266
 Vibration    13          0.733              1.559              1.132
 Vibration    14          0.745              1.526              1.065
 Vibration    15          0.756              1.496              1.008
 Vibration    16          0.819              1.337              0.764
 Vibration    17          0.837              1.292              0.707
 Vibration    18          0.854              1.253              0.661
 Vibration    19          0.872              1.213              0.617
 Vibration    20          0.964              1.019              0.440

 Optimization completed.
    -- Stationary point found.
 Normal termination of Gaussian 09 at Thu Aug 26 15:23:40 2021.

 -----------------------------------------------------------------
 #P Geom=AllCheck Guess=TCheck SCRF=Check CCSD(T,E4T,FrzG4)/GTBas1
 -----------------------------------------------------------------

 Structure from the checkpoint file:  "/public/home/users/caep010/.cache/gau_scr/Gau-55573.chk"
 ------
 QAQPIH
 ------
 Charge =  0 Multiplicity = 1

 SCF Done:  E(RHF) =  -710.707649543     A.U. after   15 cycles
 E2 =    -0.2109623037D+01 EUMP2 =    -0.71281727257928D+03
 CCSD(T)
 CCSD(T)= -0.71293734135D+03
 \MP4SDTQ=-712.9623711\MP4SDQ=-712.8524723\CCSD=-712.8427294\CCSD(T)=-7
 Normal termination of Gaussian 09 at Thu Aug 26 17:23:48 2021.

 ---------------------------------------------------------
 #P Geom=AllCheck Guess=TCheck SCRF=Check MP4=FrzG4/GTBas2
 ---------------------------------------------------------

 Structure from the checkpoint file:  "/public/home/users/caep010/.cache/gau_scr/Gau-55573.chk"
 ------
 QAQPIH
 ------
 Charge =  0 Multiplicity = 1

 SCF Done:  E(RHF) =  -710.724704022     A.U. after   16 cycles
 E2 =    -0.2137312714D+01 EUMP2 =    -0.71286201673607D+03
 Normal termination of Gaussian 09 at Thu Aug 26 18:13:19 2021.

 ---------------------------------------------------------
 #P Geom=AllCheck Guess=TCheck SCRF=Check MP4=FrzG4/GTBas3
 ---------------------------------------------------------

 Structure from the checkpoint file:  "/public/home/users/caep010/.cache/gau_scr/Gau-55573.chk"
 ------
 QAQPIH
 ------
 Charge =  0 Multiplicity = 1

 SCF Done:  E(RHF) =  -710.777252199     A.U. after   13 cycles
 E2 =    -0.2498824258D+01 EUMP2 =    -0.71327607645646D+03
 Normal termination of Gaussian 09 at Thu Aug 26 23:51:27 2021.

 -----------------------------------------------------------
 #P Geom=AllCheck Guess=TCheck SCRF=Check MP2=Full/GTLargeXP
 -----------------------------------------------------------

 Structure from the checkpoint file:  "/public/home/users/caep010/.cache/gau_scr/Gau-55573.chk"
 ------
 QAQPIH
 ------
 Charge =  0 Multiplicity = 1

 SCF Done:  E(RHF) =  -710.950237476     A.U. after   15 cycles
 E2 =    -0.3263813661D+01 EUMP2 =    -0.71421405113672D+03
 Normal termination of Gaussian 09 at Fri Aug 27 00:05:17 2021.
 SCF Done:  E(RHF) =  -711.003925137     A.U. after   11 cycles
 Normal termination of Gaussian 09 at Fri Aug 27 00:15:24 2021.

                         Standard orientation:
 ---------------------------------------------------------------------
 Center     Atomic      Atomic             Coordinates (Angstroms)
 Number     Number       Type             X           Y           Z
 ---------------------------------------------------------------------
      1          8           0        0.342118   -0.164023   -1.648029
      2          7           0       -1.034636   -0.387576   -1.624753
      3          6           0        0.812704    0.121360   -0.351934
      4          6           0       -0.448500    0.492526    0.503183
      5          7           0        1.462758   -1.196858    0.216553
      6          8           0        2.315594   -1.037546    1.066894
      7          6           0       -0.633072    2.022102    0.600613
      8          6           0       -0.509541   -0.145406    1.898302
      9          1           0       -0.470316   -1.235984    1.857752
     10          1           0       -1.449085    0.140451    2.377387
     11          1           0       -1.616424    2.239889    1.025244
     12          8           0        1.012296   -2.238513   -0.202715
     13          6           0        1.864272    1.130337   -0.416128
     14          7           0        2.661680    1.961602   -0.484684
     15          6           0       -1.479544   -0.070739   -0.466860
     16          6           0       -2.862931   -0.179550   -0.157397
     17          7           0       -3.970347   -0.236925    0.172619
     18          1           0       -0.565252    2.503402   -0.378063
     19          1           0        0.129307    2.453320    1.254144
     20          1           0        0.315196    0.214115    2.517522
 ---------------------------------------------------------------------

 SCF Done:  E(RHF) =  -711.014405246     A.U. after    8 cycles

 The electronic state is 1-A.
 Alpha  occ. eigenvalues --  -20.68917 -20.64660 -20.64370 -15.88857 -15.71306
 Alpha  occ. eigenvalues --  -15.62949 -15.62932 -11.45843 -11.37520 -11.35047
 Alpha  occ. eigenvalues --  -11.32633 -11.32518 -11.28225 -11.27937  -1.65362
 Alpha  occ. eigenvalues --   -1.54266  -1.45146  -1.28683  -1.27336  -1.24416
 Alpha  occ. eigenvalues --   -1.19700  -1.07932  -1.00637  -0.97484  -0.93677
 Alpha  occ. eigenvalues --   -0.90751  -0.83296  -0.82028  -0.77202  -0.76245
 Alpha  occ. eigenvalues --   -0.71212  -0.69784  -0.68466  -0.65321  -0.62729
 Alpha  occ. eigenvalues --   -0.62157  -0.61145  -0.60582  -0.60118  -0.57066
 Alpha  occ. eigenvalues --   -0.56853  -0.55504  -0.55326  -0.54144  -0.53033
 Alpha  occ. eigenvalues --   -0.51796  -0.50864  -0.50282  -0.49170  -0.44458
 Alpha virt. eigenvalues --    0.02072   0.03168   0.03455   0.03893   0.04150
 Alpha virt. eigenvalues --    0.04993   0.05573   0.05674   0.06017   0.06161
 Alpha virt. eigenvalues --    0.06358   0.07866   0.07981   0.08275   0.08607

 Mulliken charges:
               1
     1  O   -0.281435
     2  N   -0.168199
     3  C    0.547054
     4  C    0.280577
     5  N    0.507208
     6  O   -0.400226
     7  C   -0.704049
     8  C   -0.718704
     9  H    0.224521
    10  H    0.232404
    11  H    0.234176
    12  O   -0.362812
    13  C    0.149210
    14  N   -0.384378
    15  C    0.405846
    16  C    0.150309
    17  N   -0.384237
    18  H    0.221941
    19  H    0.220483
    20  H    0.230312
 Sum of Mulliken charges =  -0.00000

 Dipole moment (field-independent basis, Debye):
    X=             -1.3026    Y=              2.1755    Z=              2.2293  Tot=              3.3763
 Quadrupole moment (field-independent basis, Debye-Ang):
   XX=           -104.7135   YY=            -85.9104   ZZ=            -81.2621
   XY=             -5.1212   XZ=             -1.9393   YZ=              1.3619

 Normal termination of Gaussian 09 at Fri Aug 27 01:17:37 2021.
