 Gaussian 09, Revision E.01,
 Gaussian 09:  ES64L-G09RevE.01 30-Nov-2015

 -----
 #P G4
 -----

 --------
 QOYJOD06
 --------
 Symbolic Z-matrix:
 Charge =  0 Multiplicity = 1

 SCF Done:  E(RB3LYP) =  -521.961785715     A.U. after   15 cycles
 SCF Done:  E(RB3LYP) =  -522.012812433     A.U. after   13 cycles
 SCF Done:  E(RB3LYP) =  -522.015161849     A.U. after   14 cycles
 SCF Done:  E(RB3LYP) =  -522.000483732     A.U. after   17 cycles
 SCF Done:  E(RB3LYP) =  -522.016036721     A.U. after   11 cycles
 SCF Done:  E(RB3LYP) =  -522.016434977     A.U. after   12 cycles
 SCF Done:  E(RB3LYP) =  -522.016464885     A.U. after   10 cycles
 SCF Done:  E(RB3LYP) =  -522.016469753     A.U. after    9 cycles
 SCF Done:  E(RB3LYP) =  -522.016471042     A.U. after    9 cycles
 Optimization completed.
    -- Stationary point found.
 Normal termination of Gaussian 09 at Tue Aug 24 16:56:35 2021.

 ----------------------------------------------------------
 #P Geom=AllCheck Guess=TCheck SCRF=Check B3LYP/GTBas3 Freq
 ----------------------------------------------------------

 Structure from the checkpoint file:  "/public/home/users/caep010/.cache/gau_scr/Gau-147997.chk"
 --------
 QOYJOD06
 --------
 Charge =  0 Multiplicity = 1

 SCF Done:  E(RB3LYP) =  -522.016471042     A.U. after    1 cycles

  Exact polarizability:  87.565   2.152  62.426  -0.002   0.001  28.189
 Approx polarizability: 141.218   2.717 133.695  -0.008   0.003  45.009

                      1                      2                      3
                      A                      A                      A
 Frequencies --     86.2922               143.4928               202.0403
 Red. masses --     11.6824                 8.7759                11.6641
 Frc consts  --      0.0513                 0.1065                 0.2805
 IR Inten    --      0.1690                 1.5964                 4.5952

                      4                      5                      6
                      A                      A                      A
 Frequencies --    303.7265               406.9462               464.4978
 Red. masses --     12.0699                13.5366                 9.2950
 Frc consts  --      0.6560                 1.3208                 1.1816
 IR Inten    --      9.0869                 0.1418                 3.3802

                      7                      8                      9
                      A                      A                      A
 Frequencies --    477.9864               540.0410               580.5072
 Red. masses --      1.4737                 1.0954                 6.1690
 Frc consts  --      0.1984                 0.1882                 1.2249
 IR Inten    --     11.8118               190.6107                 6.3955

                     10                     11                     12
                      A                      A                      A
 Frequencies --    656.3148               747.7109               750.8760
 Red. masses --      4.0057                 8.5873                 7.9822
 Frc consts  --      1.0166                 2.8286                 2.6516
 IR Inten    --     16.1333                 5.6400                19.8235

                     13                     14                     15
                      A                      A                      A
 Frequencies --    781.1631               837.0170               983.9146
 Red. masses --     10.4006                12.2328                 3.1023
 Frc consts  --      3.7393                 5.0495                 1.7695
 IR Inten    --      2.5617                42.4266                14.5515

                     16                     17                     18
                      A                      A                      A
 Frequencies --   1009.7826              1093.4270              1200.9257
 Red. masses --      8.8495                 4.5129                 2.0781
 Frc consts  --      5.3165                 3.1790                 1.7658
 IR Inten    --     15.9767                42.9954                 7.5287

                     19                     20                     21
                      A                      A                      A
 Frequencies --   1266.5880              1382.3953              1387.6852
 Red. masses --      6.8023                 2.2295                 3.1165
 Frc consts  --      6.4295                 2.5103                 3.5359
 IR Inten    --     54.6961               225.2505                92.9539

                     22                     23                     24
                      A                      A                      A
 Frequencies --   1472.2520              1622.2291              1656.4095
 Red. masses --      5.5604                 9.6781                13.3058
 Frc consts  --      7.1011                15.0060                21.5093
 IR Inten    --     69.0332               148.6451               135.6853

                     25                     26                     27
                      A                      A                      A
 Frequencies --   1883.4882              3672.4506              3682.5857
 Red. masses --     10.5554                 1.0818                 1.0812
 Frc consts  --     22.0623                 8.5962                 8.6393
 IR Inten    --    674.9828               128.0152               130.3950

 - Thermochemistry -
 -------------------
 Temperature   298.150 Kelvin.  Pressure   1.00000 Atm.
 Atom     1 has atomic number  7 and mass  14.00307

 Molecular mass:   130.01269 amu.
 Principal axes and moments of inertia in atomic units:
                           1         2         3
     Eigenvalues --   385.730491558.688761944.41921
           X            0.99995   0.01000  -0.00000
           Y           -0.01000   0.99995  -0.00000
           Z            0.00000   0.00000   1.00000
 This molecule is an asymmetric top.
 Rotational symmetry number  1.
 Rotational temperatures (Kelvin)      0.22454     0.05557     0.04454
 Rotational constants (GHZ):           4.67876     1.15786     0.92816
 Zero-point vibrational energy     175209.5 (Joules/Mol)
                                   41.87608 (Kcal/Mol)
 Warning -- explicit consideration of   9 degrees of freedom as
           vibrations may cause significant error
 Vibrational temperatures:    124.16   206.45   290.69   436.99   585.50
          (Kelvin)            668.31   687.72   777.00   835.22   944.29
                             1075.79  1080.34  1123.92  1204.28  1415.63
                             1452.85  1573.20  1727.86  1822.34  1988.96
                             1996.57  2118.24  2334.02  2383.20  2709.92
                             5283.83  5298.41

 Zero-point correction=                           0.066734 (Hartree/Particle)
 Thermal correction to Energy=                    0.073748
 Thermal correction to Enthalpy=                  0.074692
 Thermal correction to Gibbs Free Energy=         0.034696
 Sum of electronic and zero-point Energies=           -521.949737
 Sum of electronic and thermal Energies=              -521.942723
 Sum of electronic and thermal Enthalpies=            -521.941779
 Sum of electronic and thermal Free Energies=         -521.981775

                     E (Thermal)             CV                S
                      KCal/Mol        Cal/Mol-Kelvin    Cal/Mol-Kelvin
 Total                   46.278             25.149             84.178
 Electronic               0.000              0.000              0.000
 Translational            0.889              2.981             40.500
 Rotational               0.889              2.981             28.549
 Vibrational             44.500             19.187             15.129
 Vibration     1          0.601              1.959              3.742
 Vibration     2          0.616              1.910              2.757
 Vibration     3          0.639              1.837              2.114
 Vibration     4          0.695              1.667              1.396
 Vibration     5          0.772              1.455              0.937
 Vibration     6          0.822              1.329              0.753
 Vibration     7          0.834              1.299              0.716
 Vibration     8          0.895              1.162              0.565
 Vibration     9          0.937              1.073              0.484

 Optimization completed.
    -- Stationary point found.
 Normal termination of Gaussian 09 at Tue Aug 24 16:57:26 2021.

 -----------------------------------------------------------------
 #P Geom=AllCheck Guess=TCheck SCRF=Check CCSD(T,E4T,FrzG4)/GTBas1
 -----------------------------------------------------------------

 Structure from the checkpoint file:  "/public/home/users/caep010/.cache/gau_scr/Gau-147997.chk"
 --------
 QOYJOD06
 --------
 Charge =  0 Multiplicity = 1

 SCF Done:  E(RHF) =  -519.130190387     A.U. after   16 cycles
 E2 =    -0.1457857431D+01 EUMP2 =    -0.52058804781811D+03
 CCSD(T)
 CCSD(T)= -0.52064782622D+03
 0.6664885\MP4SDQ=-520.5931214\CCSD=-520.5861562\CCSD(T)=-520.6478262\R
 Normal termination of Gaussian 09 at Tue Aug 24 17:06:52 2021.

 ---------------------------------------------------------
 #P Geom=AllCheck Guess=TCheck SCRF=Check MP4=FrzG4/GTBas2
 ---------------------------------------------------------

 Structure from the checkpoint file:  "/public/home/users/caep010/.cache/gau_scr/Gau-147997.chk"
 --------
 QOYJOD06
 --------
 Charge =  0 Multiplicity = 1

 SCF Done:  E(RHF) =  -519.145418910     A.U. after   13 cycles
 E2 =    -0.1477891060D+01 EUMP2 =    -0.52062330997055D+03
 Normal termination of Gaussian 09 at Tue Aug 24 17:09:29 2021.

 ---------------------------------------------------------
 #P Geom=AllCheck Guess=TCheck SCRF=Check MP4=FrzG4/GTBas3
 ---------------------------------------------------------

 Structure from the checkpoint file:  "/public/home/users/caep010/.cache/gau_scr/Gau-147997.chk"
 --------
 QOYJOD06
 --------
 Charge =  0 Multiplicity = 1

 SCF Done:  E(RHF) =  -519.186152971     A.U. after   13 cycles
 E2 =    -0.1731506079D+01 EUMP2 =    -0.52091765905010D+03
 Normal termination of Gaussian 09 at Tue Aug 24 17:28:38 2021.

 -----------------------------------------------------------
 #P Geom=AllCheck Guess=TCheck SCRF=Check MP2=Full/GTLargeXP
 -----------------------------------------------------------

 Structure from the checkpoint file:  "/public/home/users/caep010/.cache/gau_scr/Gau-147997.chk"
 --------
 QOYJOD06
 --------
 Charge =  0 Multiplicity = 1

 SCF Done:  E(RHF) =  -519.324439933     A.U. after   13 cycles
 E2 =    -0.2246274324D+01 EUMP2 =    -0.52157071425692D+03
 Normal termination of Gaussian 09 at Tue Aug 24 17:34:10 2021.
 SCF Done:  E(RHF) =  -519.365407590     A.U. after    9 cycles
 Normal termination of Gaussian 09 at Tue Aug 24 17:38:15 2021.

                         Standard orientation:
 ---------------------------------------------------------------------
 Center     Atomic      Atomic             Coordinates (Angstroms)
 Number     Number       Type             X           Y           Z
 ---------------------------------------------------------------------
      1          7           0        0.127800    1.349115   -0.000155
      2          6           0       -0.374561    0.158144    0.000112
      3          7           0        0.559721   -0.834183    0.000166
      4          1           0        0.369549   -1.822463   -0.000539
      5          7           0       -1.790260   -0.133373    0.000037
      6          7           0        1.467019    1.118538   -0.000153
      7          8           0       -2.066822   -1.331642   -0.000255
      8          8           0       -2.571436    0.798188    0.000183
      9          6           0        1.826817   -0.231646    0.000360
     10          8           0        2.920363   -0.732860   -0.000050
     11          1           0        2.110125    1.893297   -0.000583
 ---------------------------------------------------------------------

 SCF Done:  E(RHF) =  -519.373582045     A.U. after    7 cycles

 The electronic state is 1-A.
 Alpha  occ. eigenvalues --  -20.64377 -20.63950 -20.55750 -15.89797 -15.67549
 Alpha  occ. eigenvalues --  -15.67393 -15.66594 -11.43081 -11.41024  -1.64879
 Alpha  occ. eigenvalues --   -1.48404  -1.44324  -1.40647  -1.28468  -1.18092
 Alpha  occ. eigenvalues --   -1.05648  -0.92947  -0.86981  -0.82706  -0.77268
 Alpha  occ. eigenvalues --   -0.77200  -0.74955  -0.73006  -0.70210  -0.67114
 Alpha  occ. eigenvalues --   -0.57378  -0.56010  -0.54372  -0.53833  -0.52326
 Alpha  occ. eigenvalues --   -0.48916  -0.48077  -0.38872
 Alpha virt. eigenvalues --    0.01116   0.03309   0.04038   0.04441   0.04940
 Alpha virt. eigenvalues --    0.06648   0.07214   0.07340   0.08230   0.10104
 Alpha virt. eigenvalues --    0.10452   0.10729   0.11663   0.12898   0.13237

 Mulliken charges:
               1
     1  N   -0.251792
     2  C    0.424976
     3  N   -0.433783
     4  H    0.430473
     5  N    0.520735
     6  N   -0.314627
     7  O   -0.410120
     8  O   -0.346201
     9  C    0.586371
    10  O   -0.606879
    11  H    0.400846
 Sum of Mulliken charges =  -0.00000

 Dipole moment (field-independent basis, Debye):
    X=              1.0136    Y=              0.6368    Z=             -0.0004  Tot=              1.1971
 Quadrupole moment (field-independent basis, Debye-Ang):
   XX=            -67.3554   YY=            -48.3715   ZZ=            -48.6787
   XY=              7.7953   XZ=             -0.0009   YZ=             -0.0004

 Normal termination of Gaussian 09 at Tue Aug 24 17:51:03 2021.
