 Gaussian 09, Revision E.01,
 Gaussian 09:  ES64L-G09RevE.01 30-Nov-2015

 ----------------
 #P G4 OPT=calcfc
 ----------------

 ------
 QIKDET
 ------
 Symbolic Z-matrix:
 Charge =  0 Multiplicity = 1

 SCF Done:  E(RB3LYP) =  -696.543677603     A.U. after   16 cycles
 SCF Done:  E(RB3LYP) =  -696.629159532     A.U. after   14 cycles
 SCF Done:  E(RB3LYP) =  -696.655135060     A.U. after   15 cycles
 SCF Done:  E(RB3LYP) =  -696.656029692     A.U. after   15 cycles
 SCF Done:  E(RB3LYP) =  -696.656125957     A.U. after   13 cycles
 SCF Done:  E(RB3LYP) =  -696.656199844     A.U. after   12 cycles
 SCF Done:  E(RB3LYP) =  -696.656720797     A.U. after   13 cycles
 SCF Done:  E(RB3LYP) =  -696.656834306     A.U. after   12 cycles
 SCF Done:  E(RB3LYP) =  -696.656828932     A.U. after   11 cycles
 SCF Done:  E(RB3LYP) =  -696.656799237     A.U. after   12 cycles
 SCF Done:  E(RB3LYP) =  -696.656840602     A.U. after   11 cycles
 Optimization completed.
    -- Stationary point found.
 Normal termination of Gaussian 09 at Thu Aug 26 16:01:39 2021.

 ----------------------------------------------------------
 #P Geom=AllCheck Guess=TCheck SCRF=Check B3LYP/GTBas3 Freq
 ----------------------------------------------------------

 Structure from the checkpoint file:  "/public/home/users/caep010/.cache/gau_scr/Gau-74625.chk"
 ------
 QIKDET
 ------
 Charge =  0 Multiplicity = 1

 SCF Done:  E(RB3LYP) =  -696.656840602     A.U. after    1 cycles

  Exact polarizability: 134.255  -0.000 132.238  -0.002   0.368  42.703
 Approx polarizability: 226.385  -0.001 256.833  -0.008  -0.508  70.958

                      1                      2                      3
                      A                      A                      A
 Frequencies --     51.8024                54.0591               132.9739
 Red. masses --     15.9141                13.5960                 7.7372
 Frc consts  --      0.0252                 0.0234                 0.0806
 IR Inten    --      0.0009                 0.9091                 1.9253

                      4                      5                      6
                      A                      A                      A
 Frequencies --    160.9458               195.5711               234.5505
 Red. masses --     12.9537                 4.4757                 4.8934
 Frc consts  --      0.1977                 0.1009                 0.1586
 IR Inten    --      3.0016                 0.5484                 0.6284

                      7                      8                      9
                      A                      A                      A
 Frequencies --    237.5913               340.8841               352.1103
 Red. masses --      3.7156                 1.0610                13.0511
 Frc consts  --      0.1236                 0.0726                 0.9534
 IR Inten    --      3.9760                10.2123                 0.4494

                     10                     11                     12
                      A                      A                      A
 Frequencies --    365.1544               435.8477               473.8465
 Red. masses --      8.2767                 5.0348                 2.3192
 Frc consts  --      0.6502                 0.5635                 0.3068
 IR Inten    --      2.5042                 0.0471               174.2806

                     13                     14                     15
                      A                      A                      A
 Frequencies --    489.2784               493.3837               563.3299
 Red. masses --      5.6914                 2.2584                 6.2428
 Frc consts  --      0.8028                 0.3239                 1.1672
 IR Inten    --      0.2565               160.1329                 0.8677

                     16                     17                     18
                      A                      A                      A
 Frequencies --    573.7856               607.0623               678.6398
 Red. masses --      5.3648                 4.2782                 2.4311
 Frc consts  --      1.0406                 0.9289                 0.6597
 IR Inten    --     10.9149                 0.9568                 2.0499

                     19                     20                     21
                      A                      A                      A
 Frequencies --    748.4371               762.8583               792.4000
 Red. masses --     11.3778                 4.1937                 6.6215
 Frc consts  --      3.7551                 1.4379                 2.4496
 IR Inten    --     38.7933                36.7270                 0.0322

                     22                     23                     24
                      A                      A                      A
 Frequencies --    829.6912               898.0599               930.0161
 Red. masses --     12.8013                 1.5299                 1.5581
 Frc consts  --      5.1920                 0.7270                 0.7940
 IR Inten    --     28.4808                 5.4223                 3.2936

                     25                     26                     27
                      A                      A                      A
 Frequencies --    932.7194               939.9971               993.4852
 Red. masses --      6.4244                 1.7980                 4.6618
 Frc consts  --      3.2930                 0.9360                 2.7110
 IR Inten    --     36.2961                23.3522                 0.7606

                     28                     29                     30
                      A                      A                      A
 Frequencies --   1010.9617              1071.9584              1112.2157
 Red. masses --      6.6176                 1.5111                 1.2197
 Frc consts  --      3.9849                 1.0231                 0.8889
 IR Inten    --      3.0452                39.0452                29.4592

                     31                     32                     33
                      A                      A                      A
 Frequencies --   1124.9971              1260.1032              1328.5353
 Red. masses --      1.7270                 1.3174                 3.5858
 Frc consts  --      1.2878                 1.2325                 3.7289
 IR Inten    --      4.8540                 0.3134                54.4789

                     34                     35                     36
                      A                      A                      A
 Frequencies --   1387.9487              1390.8542              1400.6612
 Red. masses --      6.4346                14.6106                14.7856
 Frc consts  --      7.3033                16.6525                17.0905
 IR Inten    --     33.3461               396.4110                89.2455

                     37                     38                     39
                      A                      A                      A
 Frequencies --   1488.4298              1506.2013              1610.3222
 Red. masses --      3.4111                 4.4732                 7.7937
 Frc consts  --      4.4525                 5.9791                11.9074
 IR Inten    --      0.0173                44.0814                26.7345

                     40                     41                     42
                      A                      A                      A
 Frequencies --   1631.5667              1650.9782              1658.0692
 Red. masses --      7.4419                12.3307                 1.2891
 Frc consts  --     11.6719                19.8026                 2.0880
 IR Inten    --    404.0211                68.7990               172.1312

                     43                     44                     45
                      A                      A                      A
 Frequencies --   1683.7440              3222.8206              3223.1128
 Red. masses --      6.3508                 1.0901                 1.0905
 Frc consts  --     10.6080                 6.6709                 6.6749
 IR Inten    --      2.8412                 6.8758                 3.1575

                     46                     47                     48
                      A                      A                      A
 Frequencies --   3275.1936              3590.8522              3696.3878
 Red. masses --      1.0913                 1.0469                 1.1001
 Frc consts  --      6.8973                 7.9530                 8.8563
 IR Inten    --     26.4340                51.3800                25.6143

 - Thermochemistry -
 -------------------
 Temperature   298.150 Kelvin.  Pressure   1.00000 Atm.
 Atom     1 has atomic number  6 and mass  12.00000

 Molecular mass:   183.02801 amu.
 Principal axes and moments of inertia in atomic units:
                           1         2         3
     Eigenvalues --  1611.198602949.603424559.60842
           X            1.00000   0.00000  -0.00000
           Y           -0.00000   0.99999   0.00380
           Z            0.00000  -0.00380   0.99999
 This molecule is an asymmetric top.
 Rotational symmetry number  1.
 Warning -- assumption of classical behavior for rotation
           may cause significant error
 Rotational temperatures (Kelvin)      0.05376     0.02936     0.01900
 Rotational constants (GHZ):           1.12012     0.61186     0.39581
 Zero-point vibrational energy     320565.7 (Joules/Mol)
                                   76.61703 (Kcal/Mol)
 Warning -- explicit consideration of  17 degrees of freedom as
           vibrations may cause significant error
 Vibrational temperatures:     74.53    77.78   191.32   231.56   281.38
          (Kelvin)            337.47   341.84   490.46   506.61   525.38
                              627.09   681.76   703.96   709.87   810.51
                              825.55   873.43   976.41  1076.83  1097.58
                             1140.09  1193.74  1292.11  1338.08  1341.97
                             1352.44  1429.40  1454.55  1542.31  1600.23
                             1618.62  1813.01  1911.46  1996.95  2001.13
                             2015.24  2141.52  2167.09  2316.89  2347.46
                             2375.39  2385.59  2422.53  4636.91  4637.33
                             4712.27  5166.43  5318.27

 Zero-point correction=                           0.122097 (Hartree/Particle)
 Thermal correction to Energy=                    0.132905
 Thermal correction to Enthalpy=                  0.133849
 Thermal correction to Gibbs Free Energy=         0.084543
 Sum of electronic and zero-point Energies=           -696.534744
 Sum of electronic and thermal Energies=              -696.523936
 Sum of electronic and thermal Enthalpies=            -696.522992
 Sum of electronic and thermal Free Energies=         -696.572297

                     E (Thermal)             CV                S
                      KCal/Mol        Cal/Mol-Kelvin    Cal/Mol-Kelvin
 Total                   83.399             40.349            103.773
 Electronic               0.000              0.000              0.000
 Translational            0.889              2.981             41.520
 Rotational               0.889              2.981             31.450
 Vibrational             81.622             34.388             30.803
 Vibration     1          0.596              1.977              4.747
 Vibration     2          0.596              1.976              4.663
 Vibration     3          0.613              1.920              2.903
 Vibration     4          0.622              1.890              2.539
 Vibration     5          0.636              1.846              2.174
 Vibration     6          0.654              1.788              1.844
 Vibration     7          0.656              1.783              1.821
 Vibration     8          0.720              1.594              1.208
 Vibration     9          0.729              1.571              1.157
 Vibration    10          0.738              1.544              1.100
 Vibration    11          0.796              1.392              0.840
 Vibration    12          0.831              1.308              0.727
 Vibration    13          0.845              1.274              0.685
 Vibration    14          0.849              1.265              0.675
 Vibration    15          0.919              1.111              0.517
 Vibration    16          0.930              1.088              0.497
 Vibration    17          0.966              1.017              0.438

 Optimization completed.
    -- Stationary point found.
 Normal termination of Gaussian 09 at Thu Aug 26 16:04:20 2021.

 -----------------------------------------------------------------
 #P Geom=AllCheck Guess=TCheck SCRF=Check CCSD(T,E4T,FrzG4)/GTBas1
 -----------------------------------------------------------------

 Structure from the checkpoint file:  "/public/home/users/caep010/.cache/gau_scr/Gau-74625.chk"
 ------
 QIKDET
 ------
 Charge =  0 Multiplicity = 1

 SCF Done:  E(RHF) =  -692.659649802     A.U. after   14 cycles
 E2 =    -0.2008558465D+01 EUMP2 =    -0.69466820826699D+03
 CCSD(T)
 CCSD(T)= -0.69476669810D+03
 MP4SDTQ=-694.7916398\MP4SDQ=-694.6827124\CCSD=-694.6750853\CCSD(T)=-69
 Normal termination of Gaussian 09 at Thu Aug 26 17:23:46 2021.

 ---------------------------------------------------------
 #P Geom=AllCheck Guess=TCheck SCRF=Check MP4=FrzG4/GTBas2
 ---------------------------------------------------------

 Structure from the checkpoint file:  "/public/home/users/caep010/.cache/gau_scr/Gau-74625.chk"
 ------
 QIKDET
 ------
 Charge =  0 Multiplicity = 1

 SCF Done:  E(RHF) =  -692.680443774     A.U. after   14 cycles
 E2 =    -0.2035696464D+01 EUMP2 =    -0.69471614023781D+03
 Normal termination of Gaussian 09 at Thu Aug 26 17:53:25 2021.

 ---------------------------------------------------------
 #P Geom=AllCheck Guess=TCheck SCRF=Check MP4=FrzG4/GTBas3
 ---------------------------------------------------------

 Structure from the checkpoint file:  "/public/home/users/caep010/.cache/gau_scr/Gau-74625.chk"
 ------
 QIKDET
 ------
 Charge =  0 Multiplicity = 1

 SCF Done:  E(RHF) =  -692.733539754     A.U. after   12 cycles
 E2 =    -0.2390897559D+01 EUMP2 =    -0.69512443731259D+03
 Normal termination of Gaussian 09 at Thu Aug 26 22:35:20 2021.

 -----------------------------------------------------------
 #P Geom=AllCheck Guess=TCheck SCRF=Check MP2=Full/GTLargeXP
 -----------------------------------------------------------

 Structure from the checkpoint file:  "/public/home/users/caep010/.cache/gau_scr/Gau-74625.chk"
 ------
 QIKDET
 ------
 Charge =  0 Multiplicity = 1

 SCF Done:  E(RHF) =  -692.909362998     A.U. after   15 cycles
 E2 =    -0.3116807097D+01 EUMP2 =    -0.69602617009568D+03
 Normal termination of Gaussian 09 at Thu Aug 26 23:40:41 2021.
 SCF Done:  E(RHF) =  -692.965482783     A.U. after   10 cycles
 Normal termination of Gaussian 09 at Thu Aug 26 23:47:17 2021.

                         Standard orientation:
 ---------------------------------------------------------------------
 Center     Atomic      Atomic             Coordinates (Angstroms)
 Number     Number       Type             X           Y           Z
 ---------------------------------------------------------------------
      1          6           0        0.000005    1.926155   -0.007781
      2          7           0        0.000008    3.305895   -0.067217
      3          1           0        0.842483    3.773235    0.228171
      4          6           0        1.204861    1.206553   -0.004768
      5          6           0        1.175376   -0.179305   -0.003304
      6          7           0        2.464169   -0.905981    0.002481
      7          8           0        3.488648   -0.236593    0.011498
      8          1           0        2.163156    1.709966   -0.006417
      9          6           0       -0.000012   -0.916182   -0.003558
     10          6           0       -1.175384   -0.179298   -0.003316
     11          1           0       -0.000019   -1.994563   -0.001171
     12          8           0        2.421336   -2.126933   -0.001523
     13          7           0       -2.464172   -0.905974    0.002434
     14          8           0       -3.488659   -0.236603    0.011871
     15          8           0       -2.421318   -2.126924   -0.002024
     16          6           0       -1.204865    1.206568   -0.004763
     17          1           0       -2.163180    1.710002   -0.006386
     18          1           0       -0.842419    3.773260    0.228289
 ---------------------------------------------------------------------

 SCF Done:  E(RHF) =  -692.976357624     A.U. after    8 cycles

 The electronic state is 1-A.
 Alpha  occ. eigenvalues --  -20.61673 -20.61673 -20.61547 -20.61547 -15.86942
 Alpha  occ. eigenvalues --  -15.86942 -15.60651 -11.33770 -11.33768 -11.33762
 Alpha  occ. eigenvalues --  -11.29392 -11.29390 -11.29318  -1.62194  -1.62171
 Alpha  occ. eigenvalues --   -1.41622  -1.41605  -1.27985  -1.21469  -1.13629
 Alpha  occ. eigenvalues --   -1.06908  -0.99235  -0.98409  -0.86610  -0.84546
 Alpha  occ. eigenvalues --   -0.81136  -0.76938  -0.75723  -0.73935  -0.73856
 Alpha  occ. eigenvalues --   -0.73413  -0.72735  -0.72005  -0.69542  -0.65496
 Alpha  occ. eigenvalues --   -0.59792  -0.58878  -0.58754  -0.52150  -0.51257
 Alpha  occ. eigenvalues --   -0.51135  -0.50831  -0.50653  -0.47023  -0.47000
 Alpha  occ. eigenvalues --   -0.41029  -0.34884
 Alpha virt. eigenvalues --    0.00949   0.01951   0.03303   0.03725   0.04915
 Alpha virt. eigenvalues --    0.05254   0.05939   0.06382   0.07437   0.07862
 Alpha virt. eigenvalues --    0.08073   0.08512   0.08733   0.09465   0.09526

 Mulliken charges:
               1
     1  C    0.304915
     2  N   -0.706948
     3  H    0.318953
     4  C   -0.231619
     5  C    0.180639
     6  N    0.535707
     7  O   -0.435684
     8  H    0.239541
     9  C   -0.275727
    10  C    0.180644
    11  H    0.303707
    12  O   -0.420514
    13  N    0.535701
    14  O   -0.435684
    15  O   -0.420511
    16  C   -0.231617
    17  H    0.239544
    18  H    0.318954
 Sum of Mulliken charges =  -0.00000

 Dipole moment (field-independent basis, Debye):
    X=              0.0000    Y=              6.2441    Z=              0.8376  Tot=              6.3000
 Quadrupole moment (field-independent basis, Debye-Ang):
   XX=            -97.3320   YY=            -67.1351   ZZ=            -74.0886
   XY=              0.0002   XZ=              0.0004   YZ=              3.6741

 Normal termination of Gaussian 09 at Fri Aug 27 00:32:26 2021.
