 Gaussian 09, Revision E.01,
 Gaussian 09:  ES64L-G09RevE.01 30-Nov-2015

 -----
 #P G4
 -----

 --------
 QQQFNG02
 --------
 Symbolic Z-matrix:
 Charge =  0 Multiplicity = 1

 SCF Done:  E(RB3LYP) =  -696.558814222     A.U. after   15 cycles
 SCF Done:  E(RB3LYP) =  -696.638020544     A.U. after   14 cycles
 SCF Done:  E(RB3LYP) =  -696.652016705     A.U. after   15 cycles
 SCF Done:  E(RB3LYP) =  -696.662485922     A.U. after   15 cycles
 SCF Done:  E(RB3LYP) =  -696.647669473     A.U. after   17 cycles
 SCF Done:  E(RB3LYP) =  -696.664100895     A.U. after   12 cycles
 SCF Done:  E(RB3LYP) =  -696.661518696     A.U. after   15 cycles
 SCF Done:  E(RB3LYP) =  -696.664362584     A.U. after   10 cycles
 SCF Done:  E(RB3LYP) =  -696.664555362     A.U. after   13 cycles
 SCF Done:  E(RB3LYP) =  -696.664978305     A.U. after   12 cycles
 SCF Done:  E(RB3LYP) =  -696.665076848     A.U. after   10 cycles
 SCF Done:  E(RB3LYP) =  -696.665077315     A.U. after    9 cycles
 SCF Done:  E(RB3LYP) =  -696.665077411     A.U. after    8 cycles
 Optimization completed.
    -- Stationary point found.
 Normal termination of Gaussian 09 at Tue Aug 24 17:15:24 2021.

 ----------------------------------------------------------
 #P Geom=AllCheck Guess=TCheck SCRF=Check B3LYP/GTBas3 Freq
 ----------------------------------------------------------

 Structure from the checkpoint file:  "/public/home/users/caep010/.cache/gau_scr/Gau-192674.chk"
 --------
 QQQFNG02
 --------
 Charge =  0 Multiplicity = 1

 SCF Done:  E(RB3LYP) =  -696.665077411     A.U. after    1 cycles

  Exact polarizability: 157.348  -5.518 124.162  -0.006  -0.001  42.261
 Approx polarizability: 276.221 -15.989 247.116  -0.029   0.011  70.440

                      1                      2                      3
                      A                      A                      A
 Frequencies --     59.5579                66.6090               113.4914
 Red. masses --     14.3434                13.4145                 7.4463
 Frc consts  --      0.0300                 0.0351                 0.0565
 IR Inten    --      0.1614                 0.1464                 2.3921

                      4                      5                      6
                      A                      A                      A
 Frequencies --    157.6824               172.1269               282.3026
 Red. masses --      5.1428                12.3640                 1.1730
 Frc consts  --      0.0753                 0.2158                 0.0551
 IR Inten    --      0.2558                 2.7284               168.9260

                      7                      8                      9
                      A                      A                      A
 Frequencies --    307.8684               316.7125               352.6304
 Red. masses --      6.0980                 7.5314                 9.7476
 Frc consts  --      0.3405                 0.4451                 0.7141
 IR Inten    --      2.8331                 1.2601                 0.3467

                     10                     11                     12
                      A                      A                      A
 Frequencies --    375.6705               408.6989               448.3188
 Red. masses --      7.5895                 4.7874                 3.8099
 Frc consts  --      0.6311                 0.4711                 0.4512
 IR Inten    --      2.3181                 2.6882                 0.8422

                     13                     14                     15
                      A                      A                      A
 Frequencies --    523.0757               535.2125               576.9932
 Red. masses --      9.1914                 3.0589                 4.3871
 Frc consts  --      1.4817                 0.5163                 0.8605
 IR Inten    --      2.9170                 9.2982                 3.6109

                     16                     17                     18
                      A                      A                      A
 Frequencies --    628.3225               652.4936               713.2465
 Red. masses --      1.0747                 7.6578                 4.7943
 Frc consts  --      0.2500                 1.9209                 1.4370
 IR Inten    --     11.3707                 7.5165                 5.3845

                     19                     20                     21
                      A                      A                      A
 Frequencies --    727.6750               776.2647               795.9563
 Red. masses --      8.7550                 5.7130                 5.3251
 Frc consts  --      2.7314                 2.0283                 1.9877
 IR Inten    --     33.0486                20.9186                 2.4892

                     22                     23                     24
                      A                      A                      A
 Frequencies --    832.7513               850.7358               850.8497
 Red. masses --      5.4073                 1.7483                13.3826
 Frc consts  --      2.2093                 0.7455                 5.7081
 IR Inten    --      3.2385                15.8504                14.5686

                     25                     26                     27
                      A                      A                      A
 Frequencies --    941.6851               980.6149               993.7226
 Red. masses --      6.6948                 1.3831                 1.4007
 Frc consts  --      3.4978                 0.7836                 0.8149
 IR Inten    --     30.1356                 3.3875                 3.0252

                     28                     29                     30
                      A                      A                      A
 Frequencies --   1041.7986              1075.0641              1157.2422
 Red. masses --      1.6228                 1.8872                 3.2877
 Frc consts  --      1.0377                 1.2851                 2.5941
 IR Inten    --      3.9123                76.3039                74.1117

                     31                     32                     33
                      A                      A                      A
 Frequencies --   1179.7443              1278.0166              1321.4241
 Red. masses --      1.3288                 1.5391                 5.5999
 Frc consts  --      1.0897                 1.4812                 5.7613
 IR Inten    --     13.2262                 2.9719               209.9766

                     34                     35                     36
                      A                      A                      A
 Frequencies --   1376.7074              1390.1139              1406.2649
 Red. masses --      4.8410                 5.5538                 6.5525
 Frc consts  --      5.4059                 6.3233                 7.6347
 IR Inten    --    463.6569               146.2110                37.7368

                     37                     38                     39
                      A                      A                      A
 Frequencies --   1460.5302              1518.8294              1578.0808
 Red. masses --      4.4199                 2.3770                 4.1549
 Frc consts  --      5.5550                 3.2306                 6.0963
 IR Inten    --     51.2894                20.6178               144.9204

                     40                     41                     42
                      A                      A                      A
 Frequencies --   1591.9868              1630.8558              1647.7103
 Red. masses --      7.1178                 2.0937                12.0116
 Frc consts  --     10.6285                 3.2809                19.2138
 IR Inten    --     50.9798                22.0094               282.3939

                     43                     44                     45
                      A                      A                      A
 Frequencies --   1668.2700              3184.2485              3235.2695
 Red. masses --      7.6933                 1.0895                 1.0924
 Frc consts  --     12.6152                 6.5084                 6.7367
 IR Inten    --    382.7559                 6.1962                 2.9438

                     46                     47                     48
                      A                      A                      A
 Frequencies --   3260.0864              3564.8234              3724.9129
 Red. masses --      1.0902                 1.0472                 1.1022
 Frc consts  --      6.8265                 7.8411                 9.0104
 IR Inten    --     19.5025               151.6799                90.0225

 - Thermochemistry -
 -------------------
 Temperature   298.150 Kelvin.  Pressure   1.00000 Atm.
 Atom     1 has atomic number  7 and mass  14.00307

 Molecular mass:   183.02801 amu.
 Principal axes and moments of inertia in atomic units:
                           1         2         3
     Eigenvalues --  1197.078653245.850154442.92856
           X            0.99991  -0.01370  -0.00000
           Y            0.01370   0.99991  -0.00001
           Z            0.00000   0.00001   1.00000
 This molecule is an asymmetric top.
 Rotational symmetry number  1.
 Warning -- assumption of classical behavior for rotation
           may cause significant error
 Rotational temperatures (Kelvin)      0.07235     0.02668     0.01949
 Rotational constants (GHZ):           1.50762     0.55601     0.40621
 Zero-point vibrational energy     321396.2 (Joules/Mol)
                                   76.81554 (Kcal/Mol)
 Warning -- explicit consideration of  15 degrees of freedom as
           vibrations may cause significant error
 Vibrational temperatures:     85.69    95.84   163.29   226.87   247.65
          (Kelvin)            406.17   442.95   455.68   507.36   540.51
                              588.03   645.03   752.59   770.05   830.16
                              904.01   938.79  1026.20  1046.96  1116.87
                             1145.20  1198.14  1224.02  1224.18  1354.87
                             1410.88  1429.74  1498.91  1546.78  1665.01
                             1697.39  1838.78  1901.23  1980.77  2000.06
                             2023.30  2101.37  2185.25  2270.50  2290.51
                             2346.43  2370.68  2400.27  4581.42  4654.83
                             4690.53  5128.98  5359.31

 Zero-point correction=                           0.122413 (Hartree/Particle)
 Thermal correction to Energy=                    0.133041
 Thermal correction to Enthalpy=                  0.133985
 Thermal correction to Gibbs Free Energy=         0.085273
 Sum of electronic and zero-point Energies=           -696.542664
 Sum of electronic and thermal Energies=              -696.532036
 Sum of electronic and thermal Enthalpies=            -696.531092
 Sum of electronic and thermal Free Energies=         -696.579804

                     E (Thermal)             CV                S
                      KCal/Mol        Cal/Mol-Kelvin    Cal/Mol-Kelvin
 Total                   83.485             39.887            102.523
 Electronic               0.000              0.000              0.000
 Translational            0.889              2.981             41.520
 Rotational               0.889              2.981             31.224
 Vibrational             81.707             33.925             29.779
 Vibration     1          0.597              1.974              4.472
 Vibration     2          0.598              1.970              4.251
 Vibration     3          0.607              1.938              3.208
 Vibration     4          0.621              1.894              2.577
 Vibration     5          0.626              1.877              2.412
 Vibration     6          0.681              1.706              1.520
 Vibration     7          0.698              1.659              1.374
 Vibration     8          0.704              1.642              1.327
 Vibration     9          0.729              1.570              1.154
 Vibration    10          0.747              1.522              1.057
 Vibration    11          0.773              1.451              0.931
 Vibration    12          0.807              1.365              0.801
 Vibration    13          0.878              1.199              0.603
 Vibration    14          0.890              1.172              0.576
 Vibration    15          0.933              1.081              0.491

 Normal termination of Gaussian 09 at Tue Aug 24 17:17:59 2021.

 -----------------------------------------------------------------
 #P Geom=AllCheck Guess=TCheck SCRF=Check CCSD(T,E4T,FrzG4)/GTBas1
 -----------------------------------------------------------------

 Structure from the checkpoint file:  "/public/home/users/caep010/.cache/gau_scr/Gau-192674.chk"
 --------
 QQQFNG02
 --------
 Charge =  0 Multiplicity = 1

 SCF Done:  E(RHF) =  -692.667345877     A.U. after   14 cycles
 E2 =    -0.2001041481D+01 EUMP2 =    -0.69466838735882D+03
 CCSD(T)
 CCSD(T)= -0.69477030538D+03
 P4SDTQ=-694.79377\MP4SDQ=-694.6859921\CCSD=-694.6788168\CCSD(T)=-694.7
 Normal termination of Gaussian 09 at Tue Aug 24 18:49:23 2021.

 ---------------------------------------------------------
 #P Geom=AllCheck Guess=TCheck SCRF=Check MP4=FrzG4/GTBas2
 ---------------------------------------------------------

 Structure from the checkpoint file:  "/public/home/users/caep010/.cache/gau_scr/Gau-192674.chk"
 --------
 QQQFNG02
 --------
 Charge =  0 Multiplicity = 1

 SCF Done:  E(RHF) =  -692.687986639     A.U. after   16 cycles
 E2 =    -0.2027829362D+01 EUMP2 =    -0.69471581600029D+03
 Normal termination of Gaussian 09 at Tue Aug 24 19:18:23 2021.

 ---------------------------------------------------------
 #P Geom=AllCheck Guess=TCheck SCRF=Check MP4=FrzG4/GTBas3
 ---------------------------------------------------------

 Structure from the checkpoint file:  "/public/home/users/caep010/.cache/gau_scr/Gau-192674.chk"
 --------
 QQQFNG02
 --------
 Charge =  0 Multiplicity = 1

 SCF Done:  E(RHF) =  -692.740436306     A.U. after   13 cycles
 E2 =    -0.2384861910D+01 EUMP2 =    -0.69512529821549D+03
 Normal termination of Gaussian 09 at Tue Aug 24 23:55:23 2021.

 -----------------------------------------------------------
 #P Geom=AllCheck Guess=TCheck SCRF=Check MP2=Full/GTLargeXP
 -----------------------------------------------------------

 Structure from the checkpoint file:  "/public/home/users/caep010/.cache/gau_scr/Gau-192674.chk"
 --------
 QQQFNG02
 --------
 Charge =  0 Multiplicity = 1

 SCF Done:  E(RHF) =  -692.916047610     A.U. after   14 cycles
 E2 =    -0.3110715293D+01 EUMP2 =    -0.69602676290325D+03
 Normal termination of Gaussian 09 at Wed Aug 25 00:59:01 2021.
 SCF Done:  E(RHF) =  -692.972156309     A.U. after   10 cycles
 Normal termination of Gaussian 09 at Wed Aug 25 01:05:34 2021.

                         Standard orientation:
 ---------------------------------------------------------------------
 Center     Atomic      Atomic             Coordinates (Angstroms)
 Number     Number       Type             X           Y           Z
 ---------------------------------------------------------------------
      1          7           0       -2.438494    1.787220    0.000189
      2          6           0       -1.214126    1.229632   -0.000022
      3          6           0       -0.981997   -0.176785    0.000066
      4          7           0       -2.076591   -1.138248   -0.000030
      5          8           0       -3.238804   -0.710133    0.000820
      6          8           0       -1.803271   -2.328631   -0.000993
      7          6           0        0.308779   -0.699094    0.000135
      8          6           0        1.390151    0.155854    0.000001
      9          7           0        2.742980   -0.395246    0.000155
     10          8           0        2.863795   -1.614184    0.000293
     11          6           0        1.208402    1.545598   -0.000324
     12          1           0        2.078571    2.188408   -0.000541
     13          1           0        0.451231   -1.769711    0.000309
     14          6           0       -0.062941    2.062045   -0.000322
     15          1           0       -0.211148    3.136841   -0.000427
     16          8           0        3.675224    0.402427    0.000083
     17          1           0       -3.245230    1.181736    0.000375
     18          1           0       -2.533844    2.787307   -0.000749
 ---------------------------------------------------------------------

 SCF Done:  E(RHF) =  -692.983046019     A.U. after    8 cycles

 The electronic state is 1-A.
 Alpha  occ. eigenvalues --  -20.61709 -20.61353 -20.60373 -20.60365 -15.87327
 Alpha  occ. eigenvalues --  -15.85991 -15.61716 -11.36681 -11.32556 -11.31340
 Alpha  occ. eigenvalues --  -11.30989 -11.30468 -11.27819  -1.62040  -1.60915
 Alpha  occ. eigenvalues --   -1.41288  -1.40302  -1.29587  -1.21214  -1.13097
 Alpha  occ. eigenvalues --   -1.08756  -0.99340  -0.96351  -0.88495  -0.85004
 Alpha  occ. eigenvalues --   -0.80635  -0.76762  -0.76005  -0.75103  -0.74266
 Alpha  occ. eigenvalues --   -0.73901  -0.72603  -0.72551  -0.65891  -0.65528
 Alpha  occ. eigenvalues --   -0.62857  -0.59308  -0.57412  -0.51695  -0.51272
 Alpha  occ. eigenvalues --   -0.50843  -0.50226  -0.50042  -0.47360  -0.46182
 Alpha  occ. eigenvalues --   -0.40894  -0.35143
 Alpha virt. eigenvalues --    0.01905   0.02163   0.03267   0.03589   0.05108
 Alpha virt. eigenvalues --    0.05670   0.05900   0.06252   0.07231   0.07567
 Alpha virt. eigenvalues --    0.07772   0.08560   0.08940   0.09296   0.09515

 Mulliken charges:
               1
     1  N   -0.772873
     2  C    0.330232
     3  C    0.123217
     4  N    0.500625
     5  O   -0.459489
     6  O   -0.429580
     7  C   -0.174698
     8  C    0.107318
     9  N    0.547500
    10  O   -0.443113
    11  C   -0.198253
    12  H    0.268672
    13  H    0.304750
    14  C   -0.190969
    15  H    0.194425
    16  O   -0.448683
    17  H    0.399071
    18  H    0.341848
 Sum of Mulliken charges =  -0.00000

 Dipole moment (field-independent basis, Debye):
    X=             -3.0007    Y=              6.1807    Z=             -0.0014  Tot=              6.8706
 Quadrupole moment (field-independent basis, Debye-Ang):
   XX=            -93.7020   YY=            -69.8140   ZZ=            -74.2631
   XY=             -7.1111   XZ=              0.0031   YZ=             -0.0082

 Normal termination of Gaussian 09 at Wed Aug 25 01:50:19 2021.
