 Gaussian 09, Revision E.01,
 Gaussian 09:  ES64L-G09RevE.01 30-Nov-2015

 -----
 #P G4
 -----

 ------
 QUZNUV
 ------
 Symbolic Z-matrix:
 Charge =  0 Multiplicity = 1

 SCF Done:  E(RB3LYP) =  -683.891974908     A.U. after   15 cycles
 SCF Done:  E(RB3LYP) =  -684.031763376     A.U. after   12 cycles
 SCF Done:  E(RB3LYP) =  -684.114796334     A.U. after   13 cycles
 SCF Done:  E(RB3LYP) =  -684.116967026     A.U. after   13 cycles
 SCF Done:  E(RB3LYP) =  -684.113736835     A.U. after   14 cycles
 SCF Done:  E(RB3LYP) =  -684.117109833     A.U. after    9 cycles
 SCF Done:  E(RB3LYP) =  -684.117324043     A.U. after   13 cycles
 SCF Done:  E(RB3LYP) =  -684.117502431     A.U. after   11 cycles
 SCF Done:  E(RB3LYP) =  -684.117606208     A.U. after   11 cycles
 SCF Done:  E(RB3LYP) =  -684.117734430     A.U. after   12 cycles
 SCF Done:  E(RB3LYP) =  -684.120286519     A.U. after    8 cycles
 SCF Done:  E(RB3LYP) =  -684.120286526     A.U. after    6 cycles
 SCF Done:  E(RB3LYP) =  -684.120286458     A.U. after    8 cycles
 Optimization completed.
    -- Stationary point found.
 Normal termination of Gaussian 09 at Tue Aug 24 18:49:28 2021.

 ----------------------------------------------------------
 #P Geom=AllCheck Guess=TCheck SCRF=Check B3LYP/GTBas3 Freq
 ----------------------------------------------------------

 Structure from the checkpoint file:  "/public/home/users/caep010/.cache/gau_scr/Gau-180719.chk"
 ------
 QUZNUV
 ------
 Charge =  0 Multiplicity = 1

 SCF Done:  E(RB3LYP) =  -684.120286458     A.U. after    1 cycles

  Exact polarizability: 181.521   1.895 123.322   9.696  -1.785  63.543
 Approx polarizability: 243.800   0.138 245.233  18.607  -5.325 102.853

                      1                      2                      3
                      A                      A                      A
 Frequencies --     29.3025                32.9457                58.1083
 Red. masses --      6.2011                 6.6829                 5.5336
 Frc consts  --      0.0031                 0.0043                 0.0110
 IR Inten    --      4.3699                 4.5397                 1.1186

                      4                      5                      6
                      A                      A                      A
 Frequencies --     63.4219                73.3460               156.7572
 Red. masses --      5.8159                 4.4739                 3.7118
 Frc consts  --      0.0138                 0.0142                 0.0537
 IR Inten    --      3.9220                 2.8847                14.6756

                      7                      8                      9
                      A                      A                      A
 Frequencies --    188.8964               222.6165               276.3214
 Red. masses --      2.7247                 4.2701                 3.3675
 Frc consts  --      0.0573                 0.1247                 0.1515
 IR Inten    --     17.3362                 4.1097                16.3458

                     10                     11                     12
                      A                      A                      A
 Frequencies --    312.6884               348.7490               365.0233
 Red. masses --      5.9631                 4.4368                 3.0160
 Frc consts  --      0.3435                 0.3179                 0.2368
 IR Inten    --      7.0286                25.0597                 4.3814

                     13                     14                     15
                      A                      A                      A
 Frequencies --    421.7225               430.8115               503.8741
 Red. masses --      3.0930                 4.3919                 1.4532
 Frc consts  --      0.3241                 0.4803                 0.2174
 IR Inten    --      0.0430                16.1456                14.8526

                     16                     17                     18
                      A                      A                      A
 Frequencies --    527.0426               534.4079               642.9584
 Red. masses --      2.9516                 6.7317                 6.8776
 Frc consts  --      0.4831                 1.1327                 1.6752
 IR Inten    --      3.1312                 1.7242                 0.3949

                     19                     20                     21
                      A                      A                      A
 Frequencies --    661.3090               718.8995               728.7410
 Red. masses --      5.3796                 2.8401                 1.8735
 Frc consts  --      1.3862                 0.8648                 0.5862
 IR Inten    --      3.4154                 8.3913                 7.7313

                     22                     23                     24
                      A                      A                      A
 Frequencies --    778.7773               815.4679               832.8835
 Red. masses --      3.8985                 2.7433                 3.1788
 Frc consts  --      1.3931                 1.0748                 1.2992
 IR Inten    --     16.6903                 3.2336                16.8039

                     25                     26                     27
                      A                      A                      A
 Frequencies --    862.8496               875.7289               886.1269
 Red. masses --      1.2661                 5.6879                 2.1071
 Frc consts  --      0.5554                 2.5700                 0.9748
 IR Inten    --      0.3897                31.9225                16.6529

                     28                     29                     30
                      A                      A                      A
 Frequencies --    972.9220               982.0991               999.4707
 Red. masses --      1.3345                 3.1098                 1.4908
 Frc consts  --      0.7442                 1.7673                 0.8774
 IR Inten    --      0.1881                 5.7004                 4.4872

                     31                     32                     33
                      A                      A                      A
 Frequencies --   1020.4984              1029.7149              1035.9709
 Red. masses --      3.0259                 2.8527                 1.7911
 Frc consts  --      1.8566                 1.7821                 1.1326
 IR Inten    --     14.3785                 3.9308                 2.5388

                     34                     35                     36
                      A                      A                      A
 Frequencies --   1057.5712              1125.4786              1129.5663
 Red. masses --      1.6812                 2.9140                 1.2862
 Frc consts  --      1.1079                 2.1748                 0.9669
 IR Inten    --      2.1013                43.0178                 7.0561

                     37                     38                     39
                      A                      A                      A
 Frequencies --   1193.5554              1201.4124              1225.2616
 Red. masses --      1.4320                 1.2956                 2.3823
 Frc consts  --      1.2019                 1.1018                 2.1072
 IR Inten    --     52.9728                 1.6918                11.9925

                     40                     41                     42
                      A                      A                      A
 Frequencies --   1236.8371              1308.1539              1322.3847
 Red. masses --      1.9288                 1.4299                 1.3053
 Frc consts  --      1.7385                 1.4417                 1.3448
 IR Inten    --     60.8542                 0.1853                 9.2841

                     43                     44                     45
                      A                      A                      A
 Frequencies --   1337.9511              1363.4513              1393.3239
 Red. masses --      1.2028                 5.2011                 6.7738
 Frc consts  --      1.2686                 5.6967                 7.7480
 IR Inten    --     21.6291                 8.4183               355.2922

                     46                     47                     48
                      A                      A                      A
 Frequencies --   1396.7352              1426.8389              1445.0347
 Red. masses --      1.3925                 1.2344                 2.9087
 Frc consts  --      1.6005                 1.4807                 3.5785
 IR Inten    --      9.1739                 6.5447                 1.5851

                     49                     50                     51
                      A                      A                      A
 Frequencies --   1468.7977              1494.8171              1522.1866
 Red. masses --      1.1067                 1.1105                 1.9444
 Frc consts  --      1.4067                 1.4620                 2.6544
 IR Inten    --      9.2744                 5.1501               126.3024

                     52                     53                     54
                      A                      A                      A
 Frequencies --   1523.7769              1606.2067              1638.4059
 Red. masses --      2.2502                 9.4633                 5.9990
 Frc consts  --      3.0783                14.3845                 9.4879
 IR Inten    --     17.9364               102.8766                29.5316

                     55                     56                     57
                      A                      A                      A
 Frequencies --   1657.7599              1798.8457              2943.4574
 Red. masses --      9.8894                 7.5624                 1.0857
 Frc consts  --     16.0127                14.4177                 5.5420
 IR Inten    --    114.2979               228.3482               132.4570

                     58                     59                     60
                      A                      A                      A
 Frequencies --   3045.8500              3061.4108              3095.0477
 Red. masses --      1.0600                 1.0601                 1.1007
 Frc consts  --      5.7937                 5.8539                 6.2126
 IR Inten    --     11.6486                27.6065                 0.8797

                     61                     62                     63
                      A                      A                      A
 Frequencies --   3118.4582              3177.0382              3182.6934
 Red. masses --      1.1073                 1.0894                 1.0900
 Frc consts  --      6.3444                 6.4787                 6.5052
 IR Inten    --     12.9365                10.1141                 3.7125

                     64                     65                     66
                      A                      A                      A
 Frequencies --   3235.8031              3235.9298              3644.0778
 Red. masses --      1.0919                 1.0922                 1.0781
 Frc consts  --      6.7360                 6.7382                 8.4348
 IR Inten    --      1.0589                 1.6719                26.1590

 - Thermochemistry -
 -------------------
 Temperature   298.150 Kelvin.  Pressure   1.00000 Atm.
 Atom     1 has atomic number  8 and mass  15.99491

 Molecular mass:   194.06914 amu.
 Principal axes and moments of inertia in atomic units:
                           1         2         3
     Eigenvalues --   794.144247125.034567699.29685
           X            0.99999   0.00479  -0.00193
           Y           -0.00479   0.99998  -0.00301
           Z            0.00191   0.00302   0.99999
 This molecule is an asymmetric top.
 Rotational symmetry number  1.
 Warning -- assumption of classical behavior for rotation
           may cause significant error
 Rotational temperatures (Kelvin)      0.10907     0.01216     0.01125
 Rotational constants (GHZ):           2.27256     0.25330     0.23440
 Zero-point vibrational energy     490496.3 (Joules/Mol)
                                  117.23142 (Kcal/Mol)
 Warning -- explicit consideration of  17 degrees of freedom as
           vibrations may cause significant error
 Vibrational temperatures:     42.16    47.40    83.60    91.25   105.53
          (Kelvin)            225.54   271.78   320.30   397.56   449.89
                              501.77   525.19   606.76   619.84   724.96
                              758.30   768.89   925.07   951.47  1034.33
                             1048.49  1120.49  1173.28  1198.33  1241.45
                             1259.98  1274.94  1399.82  1413.02  1438.01
                             1468.27  1481.53  1490.53  1521.61  1619.31
                             1625.19  1717.26  1728.56  1762.88  1779.53
                             1882.14  1902.61  1925.01  1961.70  2004.68
                             2009.59  2052.90  2079.08  2113.27  2150.71
                             2190.08  2192.37  2310.97  2357.30  2385.14
                             2588.13  4234.97  4382.29  4404.68  4453.08
                             4486.76  4571.04  4579.18  4655.59  4655.78
                             5243.01

 Zero-point correction=                           0.186820 (Hartree/Particle)
 Thermal correction to Energy=                    0.199640
 Thermal correction to Enthalpy=                  0.200584
 Thermal correction to Gibbs Free Energy=         0.144863
 Sum of electronic and zero-point Energies=           -683.933466
 Sum of electronic and thermal Energies=              -683.920646
 Sum of electronic and thermal Enthalpies=            -683.919702
 Sum of electronic and thermal Free Energies=         -683.975424

                     E (Thermal)             CV                S
                      KCal/Mol        Cal/Mol-Kelvin    Cal/Mol-Kelvin
 Total                  125.276             46.490            117.276
 Electronic               0.000              0.000              0.000
 Translational            0.889              2.981             41.694
 Rotational               0.889              2.981             32.144
 Vibrational            123.499             40.528             43.438
 Vibration     1          0.593              1.984              5.876
 Vibration     2          0.594              1.983              5.644
 Vibration     3          0.596              1.974              4.520
 Vibration     4          0.597              1.972              4.348
 Vibration     5          0.599              1.967              4.061
 Vibration     6          0.620              1.895              2.589
 Vibration     7          0.633              1.855              2.239
 Vibration     8          0.648              1.807              1.938
 Vibration     9          0.678              1.717              1.556
 Vibration    10          0.701              1.649              1.348
 Vibration    11          0.726              1.578              1.172
 Vibration    12          0.738              1.544              1.101
 Vibration    13          0.784              1.423              0.886
 Vibration    14          0.792              1.403              0.856
 Vibration    15          0.859              1.241              0.649
 Vibration    16          0.882              1.190              0.594
 Vibration    17          0.889              1.174              0.577

 Optimization completed.
    -- Stationary point found.
 Normal termination of Gaussian 09 at Tue Aug 24 18:53:11 2021.

 -----------------------------------------------------------------
 #P Geom=AllCheck Guess=TCheck SCRF=Check CCSD(T,E4T,FrzG4)/GTBas1
 -----------------------------------------------------------------

 Structure from the checkpoint file:  "/public/home/users/caep010/.cache/gau_scr/Gau-180719.chk"
 ------
 QUZNUV
 ------
 Charge =  0 Multiplicity = 1

 SCF Done:  E(RHF) =  -680.012870750     A.U. after   15 cycles
 E2 =    -0.2022431616D+01 EUMP2 =    -0.68203530236616D+03
 CCSD(T)
 CCSD(T)= -0.68217155743D+03
 1871147\MP4SDQ=-682.0879777\CCSD=-682.084039\CCSD(T)=-682.1715574\RMSD
 Normal termination of Gaussian 09 at Tue Aug 24 21:16:23 2021.

 ---------------------------------------------------------
 #P Geom=AllCheck Guess=TCheck SCRF=Check MP4=FrzG4/GTBas2
 ---------------------------------------------------------

 Structure from the checkpoint file:  "/public/home/users/caep010/.cache/gau_scr/Gau-180719.chk"
 ------
 QUZNUV
 ------
 Charge =  0 Multiplicity = 1

 SCF Done:  E(RHF) =  -680.032695942     A.U. after   16 cycles
 E2 =    -0.2048971421D+01 EUMP2 =    -0.68208166736337D+03
 Normal termination of Gaussian 09 at Tue Aug 24 22:21:10 2021.

 ---------------------------------------------------------
 #P Geom=AllCheck Guess=TCheck SCRF=Check MP4=FrzG4/GTBas3
 ---------------------------------------------------------

 Structure from the checkpoint file:  "/public/home/users/caep010/.cache/gau_scr/Gau-180719.chk"
 ------
 QUZNUV
 ------
 Charge =  0 Multiplicity = 1

 SCF Done:  E(RHF) =  -680.081682024     A.U. after   13 cycles
 E2 =    -0.2429298436D+01 EUMP2 =    -0.68251098045967D+03
 Normal termination of Gaussian 09 at Wed Aug 25 09:09:44 2021.

 -----------------------------------------------------------
 #P Geom=AllCheck Guess=TCheck SCRF=Check MP2=Full/GTLargeXP
 -----------------------------------------------------------

 Structure from the checkpoint file:  "/public/home/users/caep010/.cache/gau_scr/Gau-180719.chk"
 ------
 QUZNUV
 ------
 Charge =  0 Multiplicity = 1

 SCF Done:  E(RHF) =  -680.248235320     A.U. after   13 cycles
 E2 =    -0.3191043305D+01 EUMP2 =    -0.68343927862547D+03
 Normal termination of Gaussian 09 at Wed Aug 25 09:27:34 2021.
 SCF Done:  E(RHF) =  -680.302123520     A.U. after   10 cycles
 Normal termination of Gaussian 09 at Wed Aug 25 09:36:15 2021.

                         Standard orientation:
 ---------------------------------------------------------------------
 Center     Atomic      Atomic             Coordinates (Angstroms)
 Number     Number       Type             X           Y           Z
 ---------------------------------------------------------------------
      1          8           0        4.527844   -0.715845    0.279759
      2          7           0        3.804326    0.268358    0.187254
      3          8           0        4.189811    1.428080    0.266117
      4          6           0        2.367578    0.040368   -0.033759
      5          6           0        1.899047   -1.264234   -0.132608
      6          6           0        0.541642   -1.469262   -0.344851
      7          1           0        0.164339   -2.483583   -0.430353
      8          1           0        2.596624   -2.086202   -0.046715
      9          6           0       -0.344042   -0.391748   -0.459370
     10          6           0        0.164351    0.909927   -0.355381
     11          1           0       -0.511577    1.754139   -0.448617
     12          6           0        1.517527    1.135623   -0.142840
     13          1           0        1.925871    2.134092   -0.065467
     14          6           0       -1.822712   -0.615575   -0.652623
     15          1           0       -2.002301   -1.591990   -1.115020
     16          1           0       -2.236038    0.148520   -1.317117
     17          6           0       -2.593477   -0.534664    0.685433
     18          1           0       -2.259436   -1.322265    1.366865
     19          7           0       -4.032495   -0.648372    0.517463
     20          1           0       -2.387636    0.429196    1.158989
     21          1           0       -4.479034   -1.542231    0.642087
     22          6           0       -4.785889    0.405314    0.105598
     23          8           0       -4.344930    1.510206   -0.135392
     24          1           0       -5.859577    0.146392    0.020865
 ---------------------------------------------------------------------

 SCF Done:  E(RHF) =  -680.312612556     A.U. after    8 cycles

 The electronic state is 1-A.
 Alpha  occ. eigenvalues --  -20.59691 -20.59659 -20.53676 -15.85007 -15.60516
 Alpha  occ. eigenvalues --  -11.36261 -11.30535 -11.28874 -11.27768 -11.27353
 Alpha  occ. eigenvalues --  -11.27239 -11.26092 -11.25841 -11.25274  -1.60163
 Alpha  occ. eigenvalues --   -1.39806  -1.39557  -1.25283  -1.19995  -1.11343
 Alpha  occ. eigenvalues --   -1.05024  -1.03948  -0.95997  -0.89254  -0.86702
 Alpha  occ. eigenvalues --   -0.82088  -0.80854  -0.77869  -0.76029  -0.72722
 Alpha  occ. eigenvalues --   -0.71695  -0.68748  -0.67335  -0.65757  -0.64447
 Alpha  occ. eigenvalues --   -0.62350  -0.61766  -0.60829  -0.60064  -0.55487
 Alpha  occ. eigenvalues --   -0.53402  -0.53275  -0.52279  -0.51177  -0.49338
 Alpha  occ. eigenvalues --   -0.49201  -0.45348  -0.44660  -0.41530  -0.36858
 Alpha  occ. eigenvalues --   -0.36467
 Alpha virt. eigenvalues --    0.01866   0.03164   0.03344   0.03930   0.04044
 Alpha virt. eigenvalues --    0.04962   0.05568   0.05888   0.06022   0.06492
 Alpha virt. eigenvalues --    0.07219   0.07283   0.08110   0.08291   0.08676

 Mulliken charges:
               1
     1  O   -0.438607
     2  N    0.523397
     3  O   -0.436493
     4  C    0.041087
     5  C   -0.161084
     6  C   -0.318791
     7  H    0.203762
     8  H    0.263301
     9  C    0.276725
    10  C   -0.255312
    11  H    0.236457
    12  C   -0.193653
    13  H    0.266045
    14  C   -0.352295
    15  H    0.185089
    16  H    0.216269
    17  C   -0.244249
    18  H    0.201609
    19  N   -0.465942
    20  H    0.207879
    21  H    0.345311
    22  C    0.338192
    23  O   -0.617801
    24  H    0.179106
 Sum of Mulliken charges =  -0.00000

 Dipole moment (field-independent basis, Debye):
    X=             -5.9248    Y=             -4.5959    Z=              0.1329  Tot=              7.4996
 Quadrupole moment (field-independent basis, Debye-Ang):
   XX=           -100.6896   YY=            -81.0734   ZZ=            -82.9934
   XY=             14.3161   XZ=             -5.2997   YZ=             -0.3934

 Normal termination of Gaussian 09 at Wed Aug 25 10:33:07 2021.
