 Gaussian 09, Revision E.01,
 Gaussian 09:  ES64L-G09RevE.01 30-Nov-2015

 ----------------
 #P G4 OPT=calcfc
 ----------------

 ------
 RIKNOO
 ------
 Symbolic Z-matrix:
 Charge =  0 Multiplicity = 1

 SCF Done:  E(RB3LYP) =  -430.625667250     A.U. after   15 cycles
 SCF Done:  E(RB3LYP) =  -430.708391523     A.U. after   13 cycles
 SCF Done:  E(RB3LYP) =  -430.720499088     A.U. after   16 cycles
 SCF Done:  E(RB3LYP) =  -430.725195233     A.U. after   16 cycles
 SCF Done:  E(RB3LYP) =  -430.726009587     A.U. after   15 cycles
 SCF Done:  E(RB3LYP) =  -430.726194977     A.U. after   13 cycles
 SCF Done:  E(RB3LYP) =  -430.726209192     A.U. after    9 cycles
 SCF Done:  E(RB3LYP) =  -430.726210089     A.U. after    9 cycles
 Optimization completed.
    -- Stationary point found.
 Normal termination of Gaussian 09 at Thu Aug 26 09:26:27 2021.

 ----------------------------------------------------------
 #P Geom=AllCheck Guess=TCheck SCRF=Check B3LYP/GTBas3 Freq
 ----------------------------------------------------------

 Structure from the checkpoint file:  "/public/home/users/caep010/.cache/gau_scr/Gau-63926.chk"
 ------
 RIKNOO
 ------
 Charge =  0 Multiplicity = 1

 SCF Done:  E(RB3LYP) =  -430.726210089     A.U. after    1 cycles

  Exact polarizability:  78.190   0.095  62.871  -0.000   0.001  27.192
 Approx polarizability: 121.750  -2.370 132.595   0.000  -0.009  43.709

                      1                      2                      3
                      A                      A                      A
 Frequencies --     69.8348               223.2872               238.1340
 Red. masses --      7.8001                 6.1323                 7.2230
 Frc consts  --      0.0224                 0.1801                 0.2413
 IR Inten    --      0.4301                 0.3631                 0.7832

                      4                      5                      6
                      A                      A                      A
 Frequencies --    440.5462               541.3434               579.0840
 Red. masses --     10.3165                 8.7477                 2.0719
 Frc consts  --      1.1797                 1.5104                 0.4094
 IR Inten    --      1.4089                 0.4720                41.0274

                      7                      8                      9
                      A                      A                      A
 Frequencies --    634.8462               691.8308               775.3971
 Red. masses --      3.9613                 2.0567                 1.5106
 Frc consts  --      0.9406                 0.5800                 0.5351
 IR Inten    --      0.2113                36.5634                56.5198

                     10                     11                     12
                      A                      A                      A
 Frequencies --    806.5738               838.9613               874.9330
 Red. masses --      3.4748                12.6740                 1.3725
 Frc consts  --      1.3319                 5.2559                 0.6190
 IR Inten    --      2.7132                51.2151                 5.0560

                     13                     14                     15
                      A                      A                      A
 Frequencies --    942.5165               992.8778              1067.3624
 Red. masses --      4.9342                 4.4926                 1.2900
 Frc consts  --      2.5825                 2.6094                 0.8659
 IR Inten    --      1.1199                10.3303                21.1744

                     16                     17                     18
                      A                      A                      A
 Frequencies --   1098.3771              1233.1018              1279.1767
 Red. masses --      2.0859                 2.6049                 3.3682
 Frc consts  --      1.4827                 2.3337                 3.2472
 IR Inten    --     20.6932                18.1394                 9.5408

                     19                     20                     21
                      A                      A                      A
 Frequencies --   1405.8581              1418.1044              1446.1003
 Red. masses --      5.0763                 7.2373                 3.7455
 Frc consts  --      5.9113                 8.5751                 4.6148
 IR Inten    --     81.6270               141.2645                24.3221

                     22                     23                     24
                      A                      A                      A
 Frequencies --   1490.9572              1565.3049              1646.2733
 Red. masses --      3.3091                 3.4012                13.5529
 Frc consts  --      4.3341                 4.9100                21.6414
 IR Inten    --     12.5913                 9.8870               218.4521

                     25                     26                     27
                      A                      A                      A
 Frequencies --   3268.5617              3309.5025              3657.9926
 Red. masses --      1.0958                 1.1023                 1.0817
 Frc consts  --      6.8975                 7.1134                 8.5283
 IR Inten    --      0.0967                 4.6922               106.3297

 - Thermochemistry -
 -------------------
 Temperature   298.150 Kelvin.  Pressure   1.00000 Atm.
 Atom     1 has atomic number  7 and mass  14.00307

 Molecular mass:   113.02253 amu.
 Principal axes and moments of inertia in atomic units:
                           1         2         3
     Eigenvalues --   328.156081054.429521382.58549
           X            0.99999   0.00440  -0.00000
           Y           -0.00440   0.99999   0.00004
           Z            0.00000  -0.00004   1.00000
 This molecule is an asymmetric top.
 Rotational symmetry number  1.
 Rotational temperatures (Kelvin)      0.26394     0.08214     0.06265
 Rotational constants (GHZ):           5.49964     1.71158     1.30534
 Zero-point vibrational energy     194613.5 (Joules/Mol)
                                   46.51375 (Kcal/Mol)
 Warning -- explicit consideration of   6 degrees of freedom as
           vibrations may cause significant error
 Vibrational temperatures:    100.48   321.26   342.62   633.85   778.87
          (Kelvin)            833.17   913.40   995.39  1115.62  1160.48
                             1207.08  1258.83  1356.07  1428.53  1535.69
                             1580.32  1774.16  1840.45  2022.71  2040.33
                             2080.61  2145.15  2252.12  2368.62  4702.73
                             4761.63  5263.03

 Zero-point correction=                           0.074124 (Hartree/Particle)
 Thermal correction to Energy=                    0.080162
 Thermal correction to Enthalpy=                  0.081106
 Thermal correction to Gibbs Free Energy=         0.043339
 Sum of electronic and zero-point Energies=           -430.652086
 Sum of electronic and thermal Energies=              -430.646048
 Sum of electronic and thermal Enthalpies=            -430.645104
 Sum of electronic and thermal Free Energies=         -430.682871

                     E (Thermal)             CV                S
                      KCal/Mol        Cal/Mol-Kelvin    Cal/Mol-Kelvin
 Total                   50.302             21.633             79.488
 Electronic               0.000              0.000              0.000
 Translational            0.889              2.981             40.083
 Rotational               0.889              2.981             27.661
 Vibrational             48.525             15.671             11.744
 Vibration     1          0.598              1.969              4.158
 Vibration     2          0.649              1.806              1.932
 Vibration     3          0.656              1.782              1.817
 Vibration     4          0.800              1.382              0.825
 Vibration     5          0.896              1.159              0.562
 Vibration     6          0.936              1.077              0.487

 Optimization completed.
    -- Stationary point found.
 Normal termination of Gaussian 09 at Thu Aug 26 09:27:07 2021.

 -----------------------------------------------------------------
 #P Geom=AllCheck Guess=TCheck SCRF=Check CCSD(T,E4T,FrzG4)/GTBas1
 -----------------------------------------------------------------

 Structure from the checkpoint file:  "/public/home/users/caep010/.cache/gau_scr/Gau-63926.chk"
 ------
 RIKNOO
 ------
 Charge =  0 Multiplicity = 1

 SCF Done:  E(RHF) =  -428.253198551     A.U. after   15 cycles
 E2 =    -0.1253255901D+01 EUMP2 =    -0.42950645445159D+03
 CCSD(T)
 CCSD(T)= -0.42956547997D+03
 139593\CCSD=-429.5096224\CCSD(T)=-429.56548\RMSD=6.553e-09\PG=C01 [X(C
 Normal termination of Gaussian 09 at Thu Aug 26 09:32:14 2021.

 ---------------------------------------------------------
 #P Geom=AllCheck Guess=TCheck SCRF=Check MP4=FrzG4/GTBas2
 ---------------------------------------------------------

 Structure from the checkpoint file:  "/public/home/users/caep010/.cache/gau_scr/Gau-63926.chk"
 ------
 RIKNOO
 ------
 Charge =  0 Multiplicity = 1

 SCF Done:  E(RHF) =  -428.266623249     A.U. after   13 cycles
 E2 =    -0.1269638203D+01 EUMP2 =    -0.42953626145209D+03
 Normal termination of Gaussian 09 at Thu Aug 26 09:33:45 2021.

 ---------------------------------------------------------
 #P Geom=AllCheck Guess=TCheck SCRF=Check MP4=FrzG4/GTBas3
 ---------------------------------------------------------

 Structure from the checkpoint file:  "/public/home/users/caep010/.cache/gau_scr/Gau-63926.chk"
 ------
 RIKNOO
 ------
 Charge =  0 Multiplicity = 1

 SCF Done:  E(RHF) =  -428.297795908     A.U. after   13 cycles
 E2 =    -0.1486007525D+01 EUMP2 =    -0.42978380343245D+03
 Normal termination of Gaussian 09 at Thu Aug 26 09:42:04 2021.

 -----------------------------------------------------------
 #P Geom=AllCheck Guess=TCheck SCRF=Check MP2=Full/GTLargeXP
 -----------------------------------------------------------

 Structure from the checkpoint file:  "/public/home/users/caep010/.cache/gau_scr/Gau-63926.chk"
 ------
 RIKNOO
 ------
 Charge =  0 Multiplicity = 1

 SCF Done:  E(RHF) =  -428.408041998     A.U. after   14 cycles
 E2 =    -0.1932654105D+01 EUMP2 =    -0.43034069610316D+03
 Normal termination of Gaussian 09 at Thu Aug 26 09:45:53 2021.
 SCF Done:  E(RHF) =  -428.442351768     A.U. after    9 cycles
 Normal termination of Gaussian 09 at Thu Aug 26 09:48:41 2021.

                         Standard orientation:
 ---------------------------------------------------------------------
 Center     Atomic      Atomic             Coordinates (Angstroms)
 Number     Number       Type             X           Y           Z
 ---------------------------------------------------------------------
      1          7           0        1.959724   -0.700255   -0.000196
      2          7           0        0.692930   -1.121217   -0.000328
      3          6           0        2.088198    0.654410    0.000204
      4          6           0        0.002632    0.010866    0.000026
      5          6           0        0.810085    1.164012    0.000345
      6          7           0       -1.448571   -0.012794    0.000015
      7          8           0       -1.997281    1.085298   -0.000600
      8          8           0       -2.011919   -1.094023    0.000556
      9          1           0        2.694790   -1.389287   -0.000763
     10          1           0        3.054636    1.132919    0.000398
     11          1           0        0.490103    2.190302    0.000830
 ---------------------------------------------------------------------

 SCF Done:  E(RHF) =  -428.449062482     A.U. after    8 cycles

 The electronic state is 1-A.
 Alpha  occ. eigenvalues --  -20.60281 -20.59952 -15.85602 -15.68547 -15.64064
 Alpha  occ. eigenvalues --  -11.33427 -11.31516 -11.26660  -1.60744  -1.42888
 Alpha  occ. eigenvalues --   -1.40077  -1.16371  -1.10496  -1.00693  -0.86659
 Alpha  occ. eigenvalues --   -0.81569  -0.78727  -0.73471  -0.72659  -0.72120
 Alpha  occ. eigenvalues --   -0.64837  -0.63625  -0.62787  -0.51572  -0.50160
 Alpha  occ. eigenvalues --   -0.49645  -0.45378  -0.41280  -0.38776
 Alpha virt. eigenvalues --    0.01918   0.03625   0.04628   0.04933   0.05347
 Alpha virt. eigenvalues --    0.06569   0.07355   0.07536   0.08377   0.08556
 Alpha virt. eigenvalues --    0.10058   0.10713   0.11569   0.12319   0.12775

 Mulliken charges:
               1
     1  N   -0.229182
     2  N   -0.320595
     3  C   -0.074861
     4  C    0.316844
     5  C   -0.256227
     6  N    0.484803
     7  O   -0.426980
     8  O   -0.382761
     9  H    0.391176
    10  H    0.238278
    11  H    0.259505
 Sum of Mulliken charges =  -0.00000

 Dipole moment (field-independent basis, Debye):
    X=              6.8571    Y=              1.1010    Z=              0.0002  Tot=              6.9450
 Quadrupole moment (field-independent basis, Debye-Ang):
   XX=            -40.2068   YY=            -46.1546   ZZ=            -45.9214
   XY=             -1.5372   XZ=             -0.0024   YZ=              0.0054

 Normal termination of Gaussian 09 at Thu Aug 26 10:00:16 2021.
