 Gaussian 09, Revision E.01,
 Gaussian 09:  ES64L-G09RevE.01 30-Nov-2015

 -----
 #P G4
 -----

 ------
 RAMVUW
 ------
 Symbolic Z-matrix:
 Charge =  0 Multiplicity = 1

 SCF Done:  E(RB3LYP) =  -446.677614360     A.U. after   15 cycles
 SCF Done:  E(RB3LYP) =  -446.738831933     A.U. after   13 cycles
 SCF Done:  E(RB3LYP) =  -446.744579634     A.U. after   15 cycles
 SCF Done:  E(RB3LYP) =  -446.736245074     A.U. after   16 cycles
 SCF Done:  E(RB3LYP) =  -446.745117597     A.U. after   11 cycles
 SCF Done:  E(RB3LYP) =  -446.745408126     A.U. after   12 cycles
 SCF Done:  E(RB3LYP) =  -446.745483162     A.U. after   12 cycles
 SCF Done:  E(RB3LYP) =  -446.745522713     A.U. after   10 cycles
 SCF Done:  E(RB3LYP) =  -446.745524829     A.U. after    9 cycles
 SCF Done:  E(RB3LYP) =  -446.745525704     A.U. after    8 cycles
 Optimization completed.
    -- Stationary point found.
 Normal termination of Gaussian 09 at Tue Aug 24 17:53:34 2021.

 ----------------------------------------------------------
 #P Geom=AllCheck Guess=TCheck SCRF=Check B3LYP/GTBas3 Freq
 ----------------------------------------------------------

 Structure from the checkpoint file:  "/public/home/users/caep010/.cache/gau_scr/Gau-193219.chk"
 ------
 RAMVUW
 ------
 Charge =  0 Multiplicity = 1

 SCF Done:  E(RB3LYP) =  -446.745525704     A.U. after    1 cycles

  Exact polarizability:  71.541  -2.097  59.750   0.001  -0.000  26.063
 Approx polarizability: 115.816  -4.096 129.895  -0.001  -0.010  42.252

                      1                      2                      3
                      A                      A                      A
 Frequencies --     75.9090               222.6006               227.9004
 Red. masses --      8.8198                 8.0422                 8.5994
 Frc consts  --      0.0299                 0.2348                 0.2632
 IR Inten    --      7.8704                 0.7658                 4.4818

                      4                      5                      6
                      A                      A                      A
 Frequencies --    439.3941               540.3436               609.7397
 Red. masses --     11.4428                 9.4525                 2.8086
 Frc consts  --      1.3016                 1.6261                 0.6152
 IR Inten    --      0.9556                 1.2739                26.6926

                      7                      8                      9
                      A                      A                      A
 Frequencies --    657.4111               726.6213               784.4534
 Red. masses --      1.9943                 3.1364                 3.8269
 Frc consts  --      0.5078                 0.9757                 1.3875
 IR Inten    --     49.4890                15.9226                17.0253

                     10                     11                     12
                      A                      A                      A
 Frequencies --    840.5060               854.1822               971.1376
 Red. masses --     13.1060                 1.7525                 3.0281
 Frc consts  --      5.4551                 0.7534                 1.6826
 IR Inten    --     51.8920                 7.0870                 2.8472

                     13                     14                     15
                      A                      A                      A
 Frequencies --   1018.9196              1027.4057              1115.2326
 Red. masses --      5.2457                 8.8626                 1.5088
 Frc consts  --      3.2087                 5.5118                 1.1057
 IR Inten    --     13.4841                 0.2042                26.0766

                     16                     17                     18
                      A                      A                      A
 Frequencies --   1266.1230              1321.5017              1355.7201
 Red. masses --      3.8473                11.3169                 3.3170
 Frc consts  --      3.6338                11.6443                 3.5920
 IR Inten    --     18.8521                59.6263                18.0244

                     19                     20                     21
                      A                      A                      A
 Frequencies --   1420.1428              1480.7523              1562.3478
 Red. masses --     11.2052                 3.4605                 4.3456
 Frc consts  --     13.3147                 4.4704                 6.2496
 IR Inten    --    145.3607                29.3948                 3.4632

                     22                     23                     24
                      A                      A                      A
 Frequencies --   1648.1873              3310.1073              3644.5880
 Red. masses --     13.8974                 1.1016                 1.0829
 Frc consts  --     22.2432                 7.1118                 8.4750
 IR Inten    --    239.7107                11.1919               111.3552

 - Thermochemistry -
 -------------------
 Temperature   298.150 Kelvin.  Pressure   1.00000 Atm.
 Atom     1 has atomic number  7 and mass  14.00307

 Molecular mass:   114.01778 amu.
 Principal axes and moments of inertia in atomic units:
                           1         2         3
     Eigenvalues --   320.259751055.945301376.20493
           X            0.99978  -0.02109  -0.00000
           Y            0.02109   0.99978   0.00002
           Z           -0.00000  -0.00002   1.00000
 This molecule is an asymmetric top.
 Rotational symmetry number  1.
 Rotational temperatures (Kelvin)      0.27045     0.08202     0.06294
 Rotational constants (GHZ):           5.63524     1.70912     1.31139
 Zero-point vibrational energy     162221.0 (Joules/Mol)
                                   38.77174 (Kcal/Mol)
 Warning -- explicit consideration of   6 degrees of freedom as
           vibrations may cause significant error
 Vibrational temperatures:    109.22   320.27   327.90   632.19   777.43
          (Kelvin)            877.28   945.87  1045.44  1128.65  1209.30
                             1228.98  1397.25  1466.00  1478.21  1604.57
                             1821.67  1901.34  1950.58  2043.27  2130.47
                             2247.87  2371.37  4762.50  5243.74

 Zero-point correction=                           0.061787 (Hartree/Particle)
 Thermal correction to Energy=                    0.067700
 Thermal correction to Enthalpy=                  0.068644
 Thermal correction to Gibbs Free Energy=         0.031083
 Sum of electronic and zero-point Energies=           -446.683739
 Sum of electronic and thermal Energies=              -446.677826
 Sum of electronic and thermal Enthalpies=            -446.676882
 Sum of electronic and thermal Free Energies=         -446.714443

                     E (Thermal)             CV                S
                      KCal/Mol        Cal/Mol-Kelvin    Cal/Mol-Kelvin
 Total                   42.482             20.701             79.054
 Electronic               0.000              0.000              0.000
 Translational            0.889              2.981             40.109
 Rotational               0.889              2.981             27.634
 Vibrational             40.705             14.739             11.312
 Vibration     1          0.599              1.965              3.994
 Vibration     2          0.648              1.807              1.938
 Vibration     3          0.651              1.798              1.895
 Vibration     4          0.799              1.384              0.829
 Vibration     5          0.895              1.161              0.565
 Vibration     6          0.969              1.011              0.433

 Optimization completed.
    -- Stationary point found.
 Normal termination of Gaussian 09 at Tue Aug 24 17:54:12 2021.

 -----------------------------------------------------------------
 #P Geom=AllCheck Guess=TCheck SCRF=Check CCSD(T,E4T,FrzG4)/GTBas1
 -----------------------------------------------------------------

 Structure from the checkpoint file:  "/public/home/users/caep010/.cache/gau_scr/Gau-193219.chk"
 ------
 RAMVUW
 ------
 Charge =  0 Multiplicity = 1

 SCF Done:  E(RHF) =  -444.223980888     A.U. after   15 cycles
 E2 =    -0.1289926489D+01 EUMP2 =    -0.44551390737698D+03
 CCSD(T)
 CCSD(T)= -0.44556928135D+03
 445.5851864\MP4SDQ=-445.5156198\CCSD=-445.5109289\CCSD(T)=-445.5692813
 Normal termination of Gaussian 09 at Tue Aug 24 17:59:23 2021.

 ---------------------------------------------------------
 #P Geom=AllCheck Guess=TCheck SCRF=Check MP4=FrzG4/GTBas2
 ---------------------------------------------------------

 Structure from the checkpoint file:  "/public/home/users/caep010/.cache/gau_scr/Gau-193219.chk"
 ------
 RAMVUW
 ------
 Charge =  0 Multiplicity = 1

 SCF Done:  E(RHF) =  -444.237533102     A.U. after   13 cycles
 E2 =    -0.1306873371D+01 EUMP2 =    -0.44554440647324D+03
 Normal termination of Gaussian 09 at Tue Aug 24 18:01:00 2021.

 ---------------------------------------------------------
 #P Geom=AllCheck Guess=TCheck SCRF=Check MP4=FrzG4/GTBas3
 ---------------------------------------------------------

 Structure from the checkpoint file:  "/public/home/users/caep010/.cache/gau_scr/Gau-193219.chk"
 ------
 RAMVUW
 ------
 Charge =  0 Multiplicity = 1

 SCF Done:  E(RHF) =  -444.269929264     A.U. after   13 cycles
 E2 =    -0.1521899499D+01 EUMP2 =    -0.44579182876269D+03
 Normal termination of Gaussian 09 at Tue Aug 24 18:08:43 2021.

 -----------------------------------------------------------
 #P Geom=AllCheck Guess=TCheck SCRF=Check MP2=Full/GTLargeXP
 -----------------------------------------------------------

 Structure from the checkpoint file:  "/public/home/users/caep010/.cache/gau_scr/Gau-193219.chk"
 ------
 RAMVUW
 ------
 Charge =  0 Multiplicity = 1

 SCF Done:  E(RHF) =  -444.385058464     A.U. after   14 cycles
 E2 =    -0.1972840856D+01 EUMP2 =    -0.44635789932064D+03
 Normal termination of Gaussian 09 at Tue Aug 24 18:12:04 2021.
 SCF Done:  E(RHF) =  -444.420814160     A.U. after   10 cycles
 Normal termination of Gaussian 09 at Tue Aug 24 18:14:45 2021.

                         Standard orientation:
 ---------------------------------------------------------------------
 Center     Atomic      Atomic             Coordinates (Angstroms)
 Number     Number       Type             X           Y           Z
 ---------------------------------------------------------------------
      1          7           0       -2.049101    0.540662    0.000428
      2          6           0       -0.823306    1.092155    0.000155
      3          6           0       -0.002424   -0.011009    0.000003
      4          7           0        1.442047   -0.001213   -0.000122
      5          7           0       -0.739825   -1.146492   -0.000434
      6          7           0       -1.992778   -0.815496   -0.000254
      7          8           0        2.024184   -1.070443    0.000594
      8          8           0        1.963923    1.111255   -0.000462
      9          1           0       -2.949696    0.995712   -0.000172
     10          1           0       -0.623180    2.148688    0.000835
 ---------------------------------------------------------------------

 SCF Done:  E(RHF) =  -444.427738966     A.U. after    8 cycles

 The electronic state is 1-A.
 Alpha  occ. eigenvalues --  -20.61465 -20.60664 -15.86868 -15.70519 -15.68653
 Alpha  occ. eigenvalues --  -15.64860 -11.34642 -11.34033  -1.61826  -1.48668
 Alpha  occ. eigenvalues --   -1.41192  -1.25652  -1.16085  -1.01518  -0.92147
 Alpha  occ. eigenvalues --   -0.85292  -0.81808  -0.75085  -0.73997  -0.73567
 Alpha  occ. eigenvalues --   -0.67936  -0.67922  -0.57482  -0.51399  -0.50856
 Alpha  occ. eigenvalues --   -0.48673  -0.47262  -0.46244  -0.41092
 Alpha virt. eigenvalues --    0.01458   0.03726   0.04159   0.05553   0.05712
 Alpha virt. eigenvalues --    0.07245   0.07332   0.07356   0.08387   0.09653
 Alpha virt. eigenvalues --    0.10138   0.10745   0.11535   0.12450   0.12708

 Mulliken charges:
               1
     1  N   -0.207386
     2  C   -0.057413
     3  C    0.254279
     4  N    0.490364
     5  N   -0.225515
     6  N   -0.128260
     7  O   -0.364559
     8  O   -0.437688
     9  H    0.391057
    10  H    0.285120
 Sum of Mulliken charges =  -0.00000

 Dipole moment (field-independent basis, Debye):
    X=             -5.0782    Y=              4.4320    Z=              0.0003  Tot=              6.7402
 Quadrupole moment (field-independent basis, Debye-Ang):
   XX=            -45.6770   YY=            -46.3444   ZZ=            -44.1196
   XY=             -8.4723   XZ=              0.0002   YZ=              0.0021

 Normal termination of Gaussian 09 at Tue Aug 24 18:25:33 2021.
