 Gaussian 09, Revision E.01,
 Gaussian 09:  ES64L-G09RevE.01 30-Nov-2015

 -----
 #P G4
 -----

 ------
 RUGJUZ
 ------
 Symbolic Z-matrix:
 Charge =  0 Multiplicity = 1

 SCF Done:  E(RB3LYP) =  -674.490798862     A.U. after   16 cycles
 SCF Done:  E(RB3LYP) =  -674.544833516     A.U. after   13 cycles
 SCF Done:  E(RB3LYP) =  -674.554107238     A.U. after   15 cycles
 SCF Done:  E(RB3LYP) =  -674.540865223     A.U. after   17 cycles
 SCF Done:  E(RB3LYP) =  -674.554998319     A.U. after   12 cycles
 SCF Done:  E(RB3LYP) =  -674.555246546     A.U. after   13 cycles
 SCF Done:  E(RB3LYP) =  -674.554725313     A.U. after   14 cycles
 SCF Done:  E(RB3LYP) =  -674.555279031     A.U. after    9 cycles
 SCF Done:  E(RB3LYP) =  -674.555321155     A.U. after   13 cycles
 SCF Done:  E(RB3LYP) =  -674.555355295     A.U. after   13 cycles
 SCF Done:  E(RB3LYP) =  -674.555460238     A.U. after   10 cycles
 SCF Done:  E(RB3LYP) =  -674.555460623     A.U. after    8 cycles
 SCF Done:  E(RB3LYP) =  -674.555460668     A.U. after    8 cycles
 Optimization completed.
    -- Stationary point found.
 Normal termination of Gaussian 09 at Tue Aug 24 18:41:36 2021.

 ----------------------------------------------------------
 #P Geom=AllCheck Guess=TCheck SCRF=Check B3LYP/GTBas3 Freq
 ----------------------------------------------------------

 Structure from the checkpoint file:  "/public/home/users/caep010/.cache/gau_scr/Gau-223102.chk"
 ------
 RUGJUZ
 ------
 Charge =  0 Multiplicity = 1

 SCF Done:  E(RB3LYP) =  -674.555460668     A.U. after    2 cycles

  Exact polarizability: 108.995   0.378  97.418  -3.729   2.444  50.464
 Approx polarizability: 186.234  -7.899 176.876 -16.573  14.262  96.512

                      1                      2                      3
                      A                      A                      A
 Frequencies --     30.0984                82.4065                99.2580
 Red. masses --     13.9373                15.1832                 4.4481
 Frc consts  --      0.0074                 0.0607                 0.0258
 IR Inten    --      0.7001                 0.2383                 1.8748

                      4                      5                      6
                      A                      A                      A
 Frequencies --    171.3419               179.9383               203.9558
 Red. masses --      6.9731                 1.2226                 6.4395
 Frc consts  --      0.1206                 0.0233                 0.1578
 IR Inten    --      0.6940                 0.3239                 2.3321

                      7                      8                      9
                      A                      A                      A
 Frequencies --    239.4880               261.6542               348.8471
 Red. masses --      5.4377                 4.4692                 6.4378
 Frc consts  --      0.1838                 0.1803                 0.4616
 IR Inten    --      1.2694                 3.2875                 1.5379

                     10                     11                     12
                      A                      A                      A
 Frequencies --    383.5127               420.5101               499.8630
 Red. masses --      5.9196                12.6829                 9.9738
 Frc consts  --      0.5130                 1.3214                 1.4683
 IR Inten    --      1.9150                 0.6970                 1.3603

                     13                     14                     15
                      A                      A                      A
 Frequencies --    577.4060               635.4167               696.4165
 Red. masses --      5.6971                 3.7733                 8.2528
 Frc consts  --      1.1191                 0.8976                 2.3583
 IR Inten    --      3.0561                13.5594                 4.9243

                     16                     17                     18
                      A                      A                      A
 Frequencies --    737.2248               779.8737               797.9408
 Red. masses --      8.3220                10.3099                10.8386
 Frc consts  --      2.6649                 3.6945                 4.0660
 IR Inten    --      0.5095                 6.7373                 2.4324

                     19                     20                     21
                      A                      A                      A
 Frequencies --    829.8760               855.3878               863.7976
 Red. masses --     13.5391                 1.4854                13.5085
 Frc consts  --      5.4937                 0.6403                 5.9386
 IR Inten    --     59.4076                 9.3657                46.9028

                     22                     23                     24
                      A                      A                      A
 Frequencies --   1038.1933              1089.6499              1153.1050
 Red. masses --      7.4722                 1.6146                 1.3171
 Frc consts  --      4.7452                 1.1295                 1.0318
 IR Inten    --      1.1803                 1.5901                 0.0379

                     25                     26                     27
                      A                      A                      A
 Frequencies --   1191.8659              1255.5609              1339.5040
 Red. masses --      5.6076                 1.5204                11.1637
 Frc consts  --      4.6933                 1.4122                11.8018
 IR Inten    --     13.4875                11.5972               120.6405

                     28                     29                     30
                      A                      A                      A
 Frequencies --   1374.6105              1386.7768              1400.6136
 Red. masses --      9.2161                 4.8092                 7.7330
 Frc consts  --     10.2602                 5.4492                 8.9378
 IR Inten    --    130.9175                84.0122                69.6148

                     31                     32                     33
                      A                      A                      A
 Frequencies --   1427.8696              1457.7440              1473.6163
 Red. masses --     12.2991                 1.3695                 1.0411
 Frc consts  --     14.7741                 1.7147                 1.3320
 IR Inten    --     74.8509                24.0165                10.1648

                     34                     35                     36
                      A                      A                      A
 Frequencies --   1506.7281              1535.0385              1555.4958
 Red. masses --      1.1468                 3.2086                 8.5784
 Frc consts  --      1.5339                 4.4546                12.2291
 IR Inten    --     39.7348               108.4147                53.1411

                     37                     38                     39
                      A                      A                      A
 Frequencies --   1626.0091              1660.8689              3076.1179
 Red. masses --     12.8197                14.5778                 1.0317
 Frc consts  --     19.9698                23.6926                 5.7520
 IR Inten    --    246.4353               202.7005                13.2360

                     40                     41                     42
                      A                      A                      A
 Frequencies --   3160.8263              3168.9944              3259.5562
 Red. masses --      1.1054                 1.1053                 1.0974
 Frc consts  --      6.5066                 6.5397                 6.8696
 IR Inten    --      4.2703                 2.0190                 1.4119

 - Thermochemistry -
 -------------------
 Temperature   298.150 Kelvin.  Pressure   1.00000 Atm.
 Atom     1 has atomic number  6 and mass  12.00000

 Molecular mass:   172.02325 amu.
 Principal axes and moments of inertia in atomic units:
                           1         2         3
     Eigenvalues --  1223.536821987.815983019.90688
           X            0.99870   0.05096   0.00035
           Y           -0.05096   0.99870  -0.00064
           Z           -0.00038   0.00062   1.00000
 This molecule is an asymmetric top.
 Rotational symmetry number  1.
 Warning -- assumption of classical behavior for rotation
           may cause significant error
 Rotational temperatures (Kelvin)      0.07079     0.04357     0.02868
 Rotational constants (GHZ):           1.47502     0.90790     0.59761
 Zero-point vibrational energy     274142.0 (Joules/Mol)
                                   65.52150 (Kcal/Mol)
 Warning -- explicit consideration of  13 degrees of freedom as
           vibrations may cause significant error
 Vibrational temperatures:     43.30   118.56   142.81   246.52   258.89
          (Kelvin)            293.45   344.57   376.46   501.91   551.79
                              605.02   719.19   830.76   914.22  1001.99
                             1060.70  1122.06  1148.06  1194.01  1230.71
                             1242.81  1493.73  1567.76  1659.06  1714.83
                             1806.47  1927.25  1977.76  1995.26  2015.17
                             2054.38  2097.37  2120.20  2167.84  2208.58
                             2238.01  2339.46  2389.62  4425.84  4547.72
                             4559.47  4689.77

 Zero-point correction=                           0.104415 (Hartree/Particle)
 Thermal correction to Energy=                    0.114623
 Thermal correction to Enthalpy=                  0.115567
 Thermal correction to Gibbs Free Energy=         0.067234
 Sum of electronic and zero-point Energies=           -674.451046
 Sum of electronic and thermal Energies=              -674.440838
 Sum of electronic and thermal Enthalpies=            -674.439894
 Sum of electronic and thermal Free Energies=         -674.488227

                     E (Thermal)             CV                S
                      KCal/Mol        Cal/Mol-Kelvin    Cal/Mol-Kelvin
 Total                   71.927             35.671            101.726
 Electronic               0.000              0.000              0.000
 Translational            0.889              2.981             41.335
 Rotational               0.889              2.981             30.375
 Vibrational             70.149             29.709             30.016
 Vibration     1          0.594              1.984              5.823
 Vibration     2          0.600              1.961              3.833
 Vibration     3          0.604              1.950              3.469
 Vibration     4          0.626              1.878              2.421
 Vibration     5          0.629              1.867              2.329
 Vibration     6          0.640              1.834              2.097
 Vibration     7          0.657              1.780              1.807
 Vibration     8          0.669              1.743              1.651
 Vibration     9          0.726              1.578              1.171
 Vibration    10          0.753              1.505              1.025
 Vibration    11          0.783              1.426              0.890
 Vibration    12          0.855              1.250              0.658
 Vibration    13          0.934              1.080              0.490

 Optimization completed.
    -- Stationary point found.
 Normal termination of Gaussian 09 at Tue Aug 24 18:43:47 2021.

 -----------------------------------------------------------------
 #P Geom=AllCheck Guess=TCheck SCRF=Check CCSD(T,E4T,FrzG4)/GTBas1
 -----------------------------------------------------------------

 Structure from the checkpoint file:  "/public/home/users/caep010/.cache/gau_scr/Gau-223102.chk"
 ------
 RUGJUZ
 ------
 Charge =  0 Multiplicity = 1

 SCF Done:  E(RHF) =  -670.750088690     A.U. after   15 cycles
 E2 =    -0.1929309437D+01 EUMP2 =    -0.67267939812709D+03
 CCSD(T)
 CCSD(T)= -0.67276241691D+03
 .6845001\CCSD=-672.6754871\CCSD(T)=-672.7624169\RMSD=9.545e-09\PG=C01
 Normal termination of Gaussian 09 at Tue Aug 24 19:38:54 2021.

 ---------------------------------------------------------
 #P Geom=AllCheck Guess=TCheck SCRF=Check MP4=FrzG4/GTBas2
 ---------------------------------------------------------

 Structure from the checkpoint file:  "/public/home/users/caep010/.cache/gau_scr/Gau-223102.chk"
 ------
 RUGJUZ
 ------
 Charge =  0 Multiplicity = 1

 SCF Done:  E(RHF) =  -670.768812804     A.U. after   15 cycles
 E2 =    -0.1956515218D+01 EUMP2 =    -0.67272532802181D+03
 Normal termination of Gaussian 09 at Tue Aug 24 19:57:16 2021.

 ---------------------------------------------------------
 #P Geom=AllCheck Guess=TCheck SCRF=Check MP4=FrzG4/GTBas3
 ---------------------------------------------------------

 Structure from the checkpoint file:  "/public/home/users/caep010/.cache/gau_scr/Gau-223102.chk"
 ------
 RUGJUZ
 ------
 Charge =  0 Multiplicity = 1

 SCF Done:  E(RHF) =  -670.819224548     A.U. after   13 cycles
 E2 =    -0.2294097518D+01 EUMP2 =    -0.67311332206612D+03
 Normal termination of Gaussian 09 at Tue Aug 24 21:52:43 2021.

 -----------------------------------------------------------
 #P Geom=AllCheck Guess=TCheck SCRF=Check MP2=Full/GTLargeXP
 -----------------------------------------------------------

 Structure from the checkpoint file:  "/public/home/users/caep010/.cache/gau_scr/Gau-223102.chk"
 ------
 RUGJUZ
 ------
 Charge =  0 Multiplicity = 1

 SCF Done:  E(RHF) =  -670.991506434     A.U. after   15 cycles
 E2 =    -0.2974448781D+01 EUMP2 =    -0.67396595521490D+03
 Normal termination of Gaussian 09 at Tue Aug 24 22:08:25 2021.
 SCF Done:  E(RHF) =  -671.044721184     A.U. after   11 cycles
 Normal termination of Gaussian 09 at Tue Aug 24 22:13:56 2021.

                         Standard orientation:
 ---------------------------------------------------------------------
 Center     Atomic      Atomic             Coordinates (Angstroms)
 Number     Number       Type             X           Y           Z
 ---------------------------------------------------------------------
      1          6           0       -0.799543   -2.055966    0.065276
      2          7           0       -1.449045   -0.867000    0.023602
      3          6           0       -2.901093   -0.702776   -0.022835
      4          6           0       -0.458024    0.094682   -0.001955
      5          1           0       -3.250682   -0.167578    0.859060
      6          1           0       -3.191861   -0.140127   -0.910075
      7          6           0        0.732243   -0.605769    0.026915
      8          1           0       -1.335846   -2.992708    0.092382
      9          7           0        2.096363   -0.083198    0.074212
     10          8           0        2.327896    0.766195    0.918972
     11          7           0        0.516776   -1.932383    0.067285
     12          1           0       -3.340158   -1.700806   -0.058430
     13          7           0       -0.717726    1.497320   -0.107012
     14          8           0       -1.866300    1.876730    0.122282
     15          8           0        0.220060    2.211551   -0.423338
     16          8           0        2.887403   -0.564848   -0.717160
 ---------------------------------------------------------------------

 SCF Done:  E(RHF) =  -671.055263974     A.U. after    8 cycles

 The electronic state is 1-A.
 Alpha  occ. eigenvalues --  -20.63001 -20.62526 -20.61760 -20.61645 -15.88952
 Alpha  occ. eigenvalues --  -15.87082 -15.69727 -15.61541 -11.37582 -11.37449
 Alpha  occ. eigenvalues --  -11.36624 -11.32120  -1.63655  -1.62387  -1.43149
 Alpha  occ. eigenvalues --   -1.42300  -1.41860  -1.26638  -1.15241  -1.06985
 Alpha  occ. eigenvalues --   -1.01811  -0.96035  -0.86709  -0.84090  -0.81339
 Alpha  occ. eigenvalues --   -0.76978  -0.76283  -0.74783  -0.74093  -0.73067
 Alpha  occ. eigenvalues --   -0.71140  -0.69395  -0.65697  -0.62480  -0.61103
 Alpha  occ. eigenvalues --   -0.53670  -0.53034  -0.51946  -0.51816  -0.50277
 Alpha  occ. eigenvalues --   -0.48143  -0.46056  -0.45617  -0.39576
 Alpha virt. eigenvalues --    0.01087   0.01620   0.03141   0.03377   0.04845
 Alpha virt. eigenvalues --    0.05615   0.06201   0.06339   0.06640   0.07233
 Alpha virt. eigenvalues --    0.08178   0.08904   0.09237   0.09411   0.09855

 Mulliken charges:
               1
     1  C    0.078692
     2  N    0.087338
     3  C   -0.539328
     4  C    0.154942
     5  H    0.229609
     6  H    0.225712
     7  C    0.353755
     8  H    0.241253
     9  N    0.494992
    10  O   -0.383824
    11  N   -0.441314
    12  H    0.204268
    13  N    0.503068
    14  O   -0.435315
    15  O   -0.383184
    16  O   -0.390665
 Sum of Mulliken charges =  -0.00000

 Dipole moment (field-independent basis, Debye):
    X=             -7.0536    Y=             -4.2367    Z=              0.0042  Tot=              8.2281
 Quadrupole moment (field-independent basis, Debye-Ang):
   XX=            -69.7459   YY=            -72.8933   ZZ=            -68.0043
   XY=              9.7160   XZ=              1.0976   YZ=             -1.3266

 Normal termination of Gaussian 09 at Tue Aug 24 22:49:08 2021.
