 Gaussian 09, Revision E.01,
 Gaussian 09:  ES64L-G09RevE.01 30-Nov-2015

 ----------------
 #P G4 OPT=calcfc
 ----------------

 ------
 RIYTID
 ------
 Symbolic Z-matrix:
 Charge =  0 Multiplicity = 1

 SCF Done:  E(RB3LYP) =  -568.239251339     A.U. after   16 cycles
 SCF Done:  E(RB3LYP) =  -568.318015049     A.U. after   13 cycles
 SCF Done:  E(RB3LYP) =  -568.346888665     A.U. after   16 cycles
 SCF Done:  E(RB3LYP) =  -568.347356219     A.U. after   15 cycles
 SCF Done:  E(RB3LYP) =  -568.347413675     A.U. after   13 cycles
 SCF Done:  E(RB3LYP) =  -568.347419547     A.U. after   11 cycles
 SCF Done:  E(RB3LYP) =  -568.347420398     A.U. after    8 cycles
 SCF Done:  E(RB3LYP) =  -568.347420426     A.U. after    8 cycles
 Optimization completed.
    -- Stationary point found.
 Normal termination of Gaussian 09 at Fri Aug 27 07:59:05 2021.

 ----------------------------------------------------------
 #P Geom=AllCheck Guess=TCheck SCRF=Check B3LYP/GTBas3 Freq
 ----------------------------------------------------------

 Structure from the checkpoint file:  "/public/home/users/caep010/.cache/gau_scr/Gau-201461.chk"
 ------
 RIYTID
 ------
 Charge =  0 Multiplicity = 1

 SCF Done:  E(RB3LYP) =  -568.347420426     A.U. after    1 cycles

  Exact polarizability: 149.208   7.982 117.944   0.000  -0.000  47.595
 Approx polarizability: 236.432  29.892 225.405   0.000  -0.001  77.928

                      1                      2                      3
                      A                      A                      A
 Frequencies --     56.0365                89.4199               113.3196
 Red. masses --     13.8091                 1.1911                 2.8465
 Frc consts  --      0.0255                 0.0056                 0.0215
 IR Inten    --      0.7809                 0.2102                 1.6561

                      4                      5                      6
                      A                      A                      A
 Frequencies --    128.1757               144.8418               223.6053
 Red. masses --     10.8738                 5.3941                 5.1012
 Frc consts  --      0.1053                 0.0667                 0.1503
 IR Inten    --      6.9484                 3.1259                 0.1538

                      7                      8                      9
                      A                      A                      A
 Frequencies --    289.8847               349.4018               359.7009
 Red. masses --      4.7720                 4.1150                 8.5062
 Frc consts  --      0.2363                 0.2960                 0.6484
 IR Inten    --      1.3822                 0.7230                 1.6700

                     10                     11                     12
                      A                      A                      A
 Frequencies --    405.5904               457.1124               481.3972
 Red. masses --      4.3780                 7.6589                 3.2938
 Frc consts  --      0.4243                 0.9429                 0.4497
 IR Inten    --      1.4184                 0.6402                 5.4041

                     13                     14                     15
                      A                      A                      A
 Frequencies --    528.4176               594.2787               602.5168
 Red. masses --      9.1735                 5.1880                 6.5444
 Frc consts  --      1.5092                 1.0795                 1.3998
 IR Inten    --      0.5231                 1.3151                 2.4396

                     16                     17                     18
                      A                      A                      A
 Frequencies --    659.9901               740.2049               755.3732
 Red. masses --      7.0290                 3.5038                 5.2701
 Frc consts  --      1.8039                 1.1311                 1.7717
 IR Inten    --      2.6855                 0.9298                 4.3300

                     19                     20                     21
                      A                      A                      A
 Frequencies --    770.0230               817.7657               867.8010
 Red. masses --      4.0287                 8.6894                 1.4278
 Frc consts  --      1.4074                 3.4237                 0.6335
 IR Inten    --     22.4223                30.7821                 6.6252

                     22                     23                     24
                      A                      A                      A
 Frequencies --    931.5953               952.5177               991.7247
 Red. masses --      5.9008                 1.4764                 1.3797
 Frc consts  --      3.0173                 0.7892                 0.7995
 IR Inten    --     19.1109                 7.3016                 2.0454

                     25                     26                     27
                      A                      A                      A
 Frequencies --   1020.4539              1062.2320              1096.6630
 Red. masses --      1.5179                 1.5792                 1.9573
 Frc consts  --      0.9312                 1.0498                 1.3870
 IR Inten    --      3.5483                 3.9064                30.0387

                     28                     29                     30
                      A                      A                      A
 Frequencies --   1154.6761              1194.3651              1239.8642
 Red. masses --      1.5913                 2.7830                 3.4605
 Frc consts  --      1.2500                 2.3391                 3.1343
 IR Inten    --      6.3606                 9.4388                 2.5090

                     31                     32                     33
                      A                      A                      A
 Frequencies --   1287.8796              1343.7871              1394.7165
 Red. masses --      1.4021                 8.3042                13.9192
 Frc consts  --      1.3702                 8.8351                15.9528
 IR Inten    --      8.4754                 3.3420               305.5005

                     34                     35                     36
                      A                      A                      A
 Frequencies --   1417.9927              1430.5784              1480.0391
 Red. masses --      1.2546                 3.1578                 1.0419
 Frc consts  --      1.4863                 3.8077                 1.3447
 IR Inten    --      3.8641                 0.0209                 7.7595

                     37                     38                     39
                      A                      A                      A
 Frequencies --   1489.6850              1507.6952              1601.1649
 Red. masses --      1.2192                 2.5788                 7.8566
 Frc consts  --      1.5940                 3.4538                11.8675
 IR Inten    --      7.0758                19.0887                48.9186

                     40                     41                     42
                      A                      A                      A
 Frequencies --   1629.5224              1663.3254              2344.8431
 Red. masses --      7.4407                 9.8630                12.6791
 Frc consts  --     11.6408                16.0773                41.0740
 IR Inten    --     60.5594               122.3919                14.9651

                     43                     44                     45
                      A                      A                      A
 Frequencies --   3042.2539              3097.9495              3134.4090
 Red. masses --      1.0373                 1.0990                 1.1014
 Frc consts  --      5.6564                 6.2145                 6.3754
 IR Inten    --      4.6995                 3.9797                11.2224

                     46                     47                     48
                      A                      A                      A
 Frequencies --   3192.2199              3236.5960              3240.6890
 Red. masses --      1.0898                 1.0924                 1.0918
 Frc consts  --      6.5431                 6.7423                 6.7555
 IR Inten    --      5.8980                 3.4828                 6.4428

 - Thermochemistry -
 -------------------
 Temperature   298.150 Kelvin.  Pressure   1.00000 Atm.
 Atom     1 has atomic number  7 and mass  14.00307

 Molecular mass:   162.04293 amu.
 Principal axes and moments of inertia in atomic units:
                           1         2         3
     Eigenvalues --   977.542322887.253303853.70566
           X            0.99966  -0.02603  -0.00000
           Y            0.02603   0.99966   0.00000
           Z            0.00000  -0.00000   1.00000
 This molecule is an asymmetric top.
 Rotational symmetry number  1.
 Warning -- assumption of classical behavior for rotation
           may cause significant error
 Rotational temperatures (Kelvin)      0.08860     0.03000     0.02248
 Rotational constants (GHZ):           1.84620     0.62507     0.46831
 Zero-point vibrational energy     338628.7 (Joules/Mol)
                                   80.93420 (Kcal/Mol)
 Warning -- explicit consideration of  15 degrees of freedom as
           vibrations may cause significant error
 Vibrational temperatures:     80.62   128.66   163.04   184.42   208.39
          (Kelvin)            321.72   417.08   502.71   517.53   583.55
                              657.68   692.62   760.27   855.03   866.89
                              949.58  1064.99  1086.81  1107.89  1176.58
                             1248.57  1340.36  1370.46  1426.87  1468.20
                             1528.31  1577.85  1661.32  1718.42  1783.89
                             1852.97  1933.41  2006.68  2040.17  2058.28
                             2129.44  2143.32  2169.23  2303.72  2344.52
                             2393.15  3373.70  4377.12  4457.25  4509.71
                             4592.89  4656.73  4662.62

 Zero-point correction=                           0.128977 (Hartree/Particle)
 Thermal correction to Energy=                    0.139304
 Thermal correction to Enthalpy=                  0.140248
 Thermal correction to Gibbs Free Energy=         0.092251
 Sum of electronic and zero-point Energies=           -568.218444
 Sum of electronic and thermal Energies=              -568.208116
 Sum of electronic and thermal Enthalpies=            -568.207172
 Sum of electronic and thermal Free Energies=         -568.255169

                     E (Thermal)             CV                S
                      KCal/Mol        Cal/Mol-Kelvin    Cal/Mol-Kelvin
 Total                   87.415             37.719            101.018
 Electronic               0.000              0.000              0.000
 Translational            0.889              2.981             41.157
 Rotational               0.889              2.981             30.765
 Vibrational             85.637             31.758             29.097
 Vibration     1          0.596              1.975              4.592
 Vibration     2          0.602              1.957              3.673
 Vibration     3          0.607              1.938              3.211
 Vibration     4          0.611              1.925              2.973
 Vibration     5          0.616              1.908              2.739
 Vibration     6          0.649              1.805              1.930
 Vibration     7          0.686              1.693              1.475
 Vibration     8          0.727              1.576              1.169
 Vibration     9          0.734              1.555              1.123
 Vibration    10          0.771              1.458              0.942
 Vibration    11          0.815              1.345              0.775
 Vibration    12          0.838              1.291              0.706
 Vibration    13          0.883              1.187              0.591
 Vibration    14          0.952              1.044              0.460
 Vibration    15          0.961              1.026              0.445

 Optimization completed.
    -- Stationary point found.
 Normal termination of Gaussian 09 at Fri Aug 27 08:01:20 2021.

 -----------------------------------------------------------------
 #P Geom=AllCheck Guess=TCheck SCRF=Check CCSD(T,E4T,FrzG4)/GTBas1
 -----------------------------------------------------------------

 Structure from the checkpoint file:  "/public/home/users/caep010/.cache/gau_scr/Gau-201461.chk"
 ------
 RIYTID
 ------
 Charge =  0 Multiplicity = 1

 SCF Done:  E(RHF) =  -564.938652201     A.U. after   16 cycles
 E2 =    -0.1709831118D+01 EUMP2 =    -0.56664848331958D+03
 CCSD(T)
 CCSD(T)= -0.56675555397D+03
 35\MP4SDQ=-566.6791936\CCSD=-566.674814\CCSD(T)=-566.755554\RMSD=4.912
 Normal termination of Gaussian 09 at Fri Aug 27 08:45:59 2021.

 ---------------------------------------------------------
 #P Geom=AllCheck Guess=TCheck SCRF=Check MP4=FrzG4/GTBas2
 ---------------------------------------------------------

 Structure from the checkpoint file:  "/public/home/users/caep010/.cache/gau_scr/Gau-201461.chk"
 ------
 RIYTID
 ------
 Charge =  0 Multiplicity = 1

 SCF Done:  E(RHF) =  -564.953052539     A.U. after   17 cycles
 E2 =    -0.1728930986D+01 EUMP2 =    -0.56668198352552D+03
 Normal termination of Gaussian 09 at Fri Aug 27 09:03:15 2021.

 ---------------------------------------------------------
 #P Geom=AllCheck Guess=TCheck SCRF=Check MP4=FrzG4/GTBas3
 ---------------------------------------------------------

 Structure from the checkpoint file:  "/public/home/users/caep010/.cache/gau_scr/Gau-201461.chk"
 ------
 RIYTID
 ------
 Charge =  0 Multiplicity = 1

 SCF Done:  E(RHF) =  -564.992723399     A.U. after   13 cycles
 E2 =    -0.2027673253D+01 EUMP2 =    -0.56702039665118D+03
 Normal termination of Gaussian 09 at Fri Aug 27 11:39:25 2021.

 -----------------------------------------------------------
 #P Geom=AllCheck Guess=TCheck SCRF=Check MP2=Full/GTLargeXP
 -----------------------------------------------------------

 Structure from the checkpoint file:  "/public/home/users/caep010/.cache/gau_scr/Gau-201461.chk"
 ------
 RIYTID
 ------
 Charge =  0 Multiplicity = 1

 SCF Done:  E(RHF) =  -565.124978326     A.U. after   16 cycles
 E2 =    -0.2668999921D+01 EUMP2 =    -0.56779397824695D+03
 Normal termination of Gaussian 09 at Fri Aug 27 11:56:24 2021.
 SCF Done:  E(RHF) =  -565.169579448     A.U. after   10 cycles
 Normal termination of Gaussian 09 at Fri Aug 27 12:02:02 2021.

                         Standard orientation:
 ---------------------------------------------------------------------
 Center     Atomic      Atomic             Coordinates (Angstroms)
 Number     Number       Type             X           Y           Z
 ---------------------------------------------------------------------
      1          7           0       -2.555568    0.332278    0.000001
      2          6           0       -1.147673   -0.103211   -0.000004
      3          6           0       -0.149187    0.857791   -0.000002
      4          1           0       -0.410360    1.906983    0.000000
      5          8           0       -3.413573   -0.539948    0.000046
      6          8           0       -2.774007    1.535784   -0.000040
      7          6           0       -0.856868   -1.461593   -0.000007
      8          6           0        0.474130   -1.860910   -0.000010
      9          1           0        0.711092   -2.919182   -0.000016
     10          6           0        1.517549   -0.933249   -0.000006
     11          1           0       -1.668047   -2.177147   -0.000009
     12          6           0        2.955166   -1.374680   -0.000005
     13          1           0        3.032500   -2.463547   -0.000103
     14          6           0        1.183456    0.439588   -0.000002
     15          6           0        2.224169    1.422280    0.000008
     16          7           0        3.078609    2.203288    0.000019
     17          1           0        3.484828   -0.989506    0.877744
     18          1           0        3.484882   -0.989345   -0.877646
 ---------------------------------------------------------------------

 SCF Done:  E(RHF) =  -565.177862078     A.U. after    7 cycles

 The electronic state is 1-A.
 Alpha  occ. eigenvalues --  -20.61345 -20.61330 -15.86739 -15.58966 -11.32751
 Alpha  occ. eigenvalues --  -11.31266 -11.31123 -11.30606 -11.30052 -11.29307
 Alpha  occ. eigenvalues --  -11.28124 -11.26145  -1.61928  -1.41364  -1.24658
 Alpha  occ. eigenvalues --   -1.21995  -1.13349  -1.08843  -1.02820  -0.94277
 Alpha  occ. eigenvalues --   -0.91604  -0.85099  -0.80933  -0.74745  -0.73453
 Alpha  occ. eigenvalues --   -0.72340  -0.70162  -0.69619  -0.65277  -0.62129
 Alpha  occ. eigenvalues --   -0.59378  -0.57886  -0.56711  -0.55886  -0.55258
 Alpha  occ. eigenvalues --   -0.51258  -0.50955  -0.50536  -0.48444  -0.46890
 Alpha  occ. eigenvalues --   -0.39104  -0.38280
 Alpha virt. eigenvalues --    0.01932   0.02321   0.03637   0.04119   0.04442
 Alpha virt. eigenvalues --    0.05155   0.05489   0.06016   0.06163   0.06195
 Alpha virt. eigenvalues --    0.07264   0.07556   0.08300   0.08916   0.09124

 Mulliken charges:
               1
     1  N    0.530862
     2  C    0.110181
     3  C   -0.251669
     4  H    0.281163
     5  O   -0.433358
     6  O   -0.431789
     7  C   -0.196734
     8  C   -0.182803
     9  H    0.219179
    10  C    0.125019
    11  H    0.269888
    12  C   -0.704845
    13  H    0.187183
    14  C    0.399355
    15  C    0.069979
    16  N   -0.417898
    17  H    0.213139
    18  H    0.213146
 Sum of Mulliken charges =  -0.00000

 Dipole moment (field-independent basis, Debye):
    X=              2.0751    Y=             -4.9096    Z=             -0.0000  Tot=              5.3301
 Quadrupole moment (field-independent basis, Debye-Ang):
   XX=            -90.2746   YY=            -70.7387   ZZ=            -69.3965
   XY=             -9.4290   XZ=              0.0000   YZ=              0.0001

 Normal termination of Gaussian 09 at Fri Aug 27 12:36:25 2021.
