 Gaussian 09, Revision E.01,
 Gaussian 09:  ES64L-G09RevE.01 30-Nov-2015

 ----------------
 #P G4 OPT=calcfc
 ----------------

 ------
 RIRMAH
 ------
 Symbolic Z-matrix:
 Charge =  0 Multiplicity = 1

 SCF Done:  E(RB3LYP) =  -547.338837579     A.U. after   15 cycles
 SCF Done:  E(RB3LYP) =  -547.449233425     A.U. after   14 cycles
 SCF Done:  E(RB3LYP) =  -547.496418972     A.U. after   14 cycles
 SCF Done:  E(RB3LYP) =  -547.497524679     A.U. after   14 cycles
 SCF Done:  E(RB3LYP) =  -547.500972984     A.U. after   14 cycles
 SCF Done:  E(RB3LYP) =  -547.493109003     A.U. after   15 cycles
 SCF Done:  E(RB3LYP) =  -547.503922900     A.U. after   12 cycles
 SCF Done:  E(RB3LYP) =  -547.506028057     A.U. after   13 cycles
 SCF Done:  E(RB3LYP) =  -547.479815439     A.U. after   14 cycles
 SCF Done:  E(RB3LYP) =  -547.495014719     A.U. after   13 cycles
 SCF Done:  E(RB3LYP) =  -547.509454383     A.U. after    9 cycles
 SCF Done:  E(RB3LYP) =  -547.509455741     A.U. after    8 cycles
 SCF Done:  E(RB3LYP) =  -547.509455981     A.U. after    7 cycles
 Optimization completed.
    -- Stationary point found.
 Normal termination of Gaussian 09 at Thu Aug 26 16:01:40 2021.

 ----------------------------------------------------------
 #P Geom=AllCheck Guess=TCheck SCRF=Check B3LYP/GTBas3 Freq
 ----------------------------------------------------------

 Structure from the checkpoint file:  "/public/home/users/caep010/.cache/gau_scr/Gau-17465.chk"
 ------
 RIRMAH
 ------
 Charge =  0 Multiplicity = 1

 SCF Done:  E(RB3LYP) =  -547.509455981     A.U. after    1 cycles

  Exact polarizability: 148.927  -1.235 106.484  -0.091   0.153  41.289
 Approx polarizability: 250.998  -1.666 201.744  -1.136   2.449  67.697

                      1                      2                      3
                      A                      A                      A
 Frequencies --     68.4021               115.5156               210.4720
 Red. masses --     10.2763                 5.7372                 4.3825
 Frc consts  --      0.0283                 0.0451                 0.1144
 IR Inten    --      0.0124                 0.2256                 0.3923

                      4                      5                      6
                      A                      A                      A
 Frequencies --    216.0739               251.6923               315.6071
 Red. masses --      4.3943                 1.1479                 3.6148
 Frc consts  --      0.1209                 0.0428                 0.2121
 IR Inten    --      2.0360                11.2981                 0.0909

                      7                      8                      9
                      A                      A                      A
 Frequencies --    337.2481               363.8077               425.8117
 Red. masses --      4.2778                 9.1658                 5.0107
 Frc consts  --      0.2867                 0.7148                 0.5353
 IR Inten    --      9.4656                 0.0832                 0.9588

                     10                     11                     12
                      A                      A                      A
 Frequencies --    453.6876               486.9413               553.6514
 Red. masses --      2.6412                 1.0996                 7.0884
 Frc consts  --      0.3203                 0.1536                 1.2802
 IR Inten    --     17.2255                 3.5165                 3.3119

                     13                     14                     15
                      A                      A                      A
 Frequencies --    572.0190               577.3462               648.5008
 Red. masses --      3.8348                 4.2173                 4.1627
 Frc consts  --      0.7393                 0.8282                 1.0314
 IR Inten    --     10.2492                 5.4107               121.7242

                     16                     17                     18
                      A                      A                      A
 Frequencies --    685.9833               734.7014               777.4278
 Red. masses --      1.6493                 2.4955                 3.8014
 Frc consts  --      0.4573                 0.7937                 1.3537
 IR Inten    --    215.5142                53.7507                62.9523

                     19                     20                     21
                      A                      A                      A
 Frequencies --    791.4295               801.4348               836.6049
 Red. masses --      3.2887                 1.8850                 5.4543
 Frc consts  --      1.2137                 0.7133                 2.2492
 IR Inten    --    139.9171               117.4198                17.3674

                     22                     23                     24
                      A                      A                      A
 Frequencies --    850.5449               908.8426               952.3942
 Red. masses --      1.8475                 1.4655                 1.3733
 Frc consts  --      0.7875                 0.7132                 0.7339
 IR Inten    --     36.2061                20.1149                 4.7385

                     25                     26                     27
                      A                      A                      A
 Frequencies --    964.3705              1076.5789              1113.2084
 Red. masses --      4.2243                 1.6345                 1.9905
 Frc consts  --      2.3147                 1.1162                 1.4534
 IR Inten    --     12.3785                10.5049                44.4516

                     28                     29                     30
                      A                      A                      A
 Frequencies --   1132.9312              1172.1632              1270.6874
 Red. masses --      1.2784                 1.2117                 2.9029
 Frc consts  --      0.9668                 0.9809                 2.7616
 IR Inten    --     10.1146                11.8873                16.3583

                     31                     32                     33
                      A                      A                      A
 Frequencies --   1311.5791              1333.6783              1383.6937
 Red. masses --      1.7302                 2.6278                12.5533
 Frc consts  --      1.7537                 2.7539                14.1608
 IR Inten    --     12.5399               174.9918               436.9332

                     34                     35                     36
                      A                      A                      A
 Frequencies --   1408.0083              1476.3831              1539.9742
 Red. masses --      5.1882                 3.8025                 3.4117
 Frc consts  --      6.0601                 4.8833                 4.7670
 IR Inten    --     11.8176                 1.6651                96.4473

                     37                     38                     39
                      A                      A                      A
 Frequencies --   1603.6905              1615.5243              1648.8722
 Red. masses --      9.8699                 1.8716                 4.5465
 Frc consts  --     14.9556                 2.8780                 7.2829
 IR Inten    --    211.3546                17.7781                97.9661

                     40                     41                     42
                      A                      A                      A
 Frequencies --   1660.0010              1667.4600              3176.2216
 Red. masses --      1.1535                 2.5232                 1.0893
 Frc consts  --      1.8727                 4.1335                 6.4750
 IR Inten    --     41.8577                75.3645                12.7547

                     43                     44                     45
                      A                      A                      A
 Frequencies --   3219.7323              3242.3963              3513.3203
 Red. masses --      1.0902                 1.0919                 1.0507
 Frc consts  --      6.6589                 6.7634                 7.6409
 IR Inten    --      2.9842                 1.7201                 7.8784

                     46                     47                     48
                      A                      A                      A
 Frequencies --   3534.1250              3617.8763              3644.5081
 Red. masses --      1.0486                 1.0930                 1.0962
 Frc consts  --      7.7168                 8.4291                 8.5787
 IR Inten    --     29.0542                16.1101                21.5950

 - Thermochemistry -
 -------------------
 Temperature   298.150 Kelvin.  Pressure   1.00000 Atm.
 Atom     1 has atomic number  6 and mass  12.00000

 Molecular mass:   153.05383 amu.
 Principal axes and moments of inertia in atomic units:
                           1         2         3
     Eigenvalues --   718.352302473.224183185.68898
           X            0.99999   0.00456   0.00081
           Y           -0.00455   0.99996  -0.00739
           Z           -0.00084   0.00739   0.99997
 This molecule is an asymmetric top.
 Rotational symmetry number  1.
 Warning -- assumption of classical behavior for rotation
           may cause significant error
 Rotational temperatures (Kelvin)      0.12057     0.03502     0.02719
 Rotational constants (GHZ):           2.51233     0.72971     0.56652
 Zero-point vibrational energy     360453.5 (Joules/Mol)
                                   86.15046 (Kcal/Mol)
 Warning -- explicit consideration of  14 degrees of freedom as
           vibrations may cause significant error
 Vibrational temperatures:     98.42   166.20   302.82   310.88   362.13
          (Kelvin)            454.09   485.22   523.44   612.65   652.75
                              700.60   796.58   823.01   830.67   933.05
                              986.98  1057.07  1118.54  1138.69  1153.08
                             1203.69  1223.74  1307.62  1370.28  1387.51
                             1548.95  1601.66  1630.03  1686.48  1828.23
                             1887.07  1918.86  1990.82  2025.81  2124.18
                             2215.68  2307.35  2324.38  2372.36  2388.37
                             2399.10  4569.87  4632.47  4665.08  5054.88
                             5084.81  5205.31  5243.63

 Zero-point correction=                           0.137289 (Hartree/Particle)
 Thermal correction to Energy=                    0.146660
 Thermal correction to Enthalpy=                  0.147604
 Thermal correction to Gibbs Free Energy=         0.102712
 Sum of electronic and zero-point Energies=           -547.372166
 Sum of electronic and thermal Energies=              -547.362796
 Sum of electronic and thermal Enthalpies=            -547.361852
 Sum of electronic and thermal Free Energies=         -547.406744

                     E (Thermal)             CV                S
                      KCal/Mol        Cal/Mol-Kelvin    Cal/Mol-Kelvin
 Total                   92.031             36.540             94.483
 Electronic               0.000              0.000              0.000
 Translational            0.889              2.981             40.987
 Rotational               0.889              2.981             30.116
 Vibrational             90.253             30.579             23.381
 Vibration     1          0.598              1.969              4.199
 Vibration     2          0.608              1.937              3.174
 Vibration     3          0.643              1.825              2.040
 Vibration     4          0.645              1.817              1.992
 Vibration     5          0.664              1.760              1.719
 Vibration     6          0.703              1.644              1.333
 Vibration     7          0.718              1.601              1.225
 Vibration     8          0.737              1.547              1.106
 Vibration     9          0.788              1.414              0.872
 Vibration    10          0.812              1.353              0.785
 Vibration    11          0.843              1.279              0.692
 Vibration    12          0.909              1.132              0.537
 Vibration    13          0.928              1.092              0.500
 Vibration    14          0.934              1.080              0.490

 Optimization completed.
    -- Stationary point found.
 Normal termination of Gaussian 09 at Thu Aug 26 16:03:33 2021.

 -----------------------------------------------------------------
 #P Geom=AllCheck Guess=TCheck SCRF=Check CCSD(T,E4T,FrzG4)/GTBas1
 -----------------------------------------------------------------

 Structure from the checkpoint file:  "/public/home/users/caep010/.cache/gau_scr/Gau-17465.chk"
 ------
 RIRMAH
 ------
 Charge =  0 Multiplicity = 1

 SCF Done:  E(RHF) =  -544.229620141     A.U. after   15 cycles
 E2 =    -0.1629655971D+01 EUMP2 =    -0.54585927611262D+03
 CCSD(T)
 CCSD(T)= -0.54595894981D+03
 6824\MP4SDQ=-545.8908592\CCSD=-545.8878229\CCSD(T)=-545.9589498\RMSD=3
 Normal termination of Gaussian 09 at Thu Aug 26 16:42:05 2021.

 ---------------------------------------------------------
 #P Geom=AllCheck Guess=TCheck SCRF=Check MP4=FrzG4/GTBas2
 ---------------------------------------------------------

 Structure from the checkpoint file:  "/public/home/users/caep010/.cache/gau_scr/Gau-17465.chk"
 ------
 RIRMAH
 ------
 Charge =  0 Multiplicity = 1

 SCF Done:  E(RHF) =  -544.247244390     A.U. after   19 cycles
 E2 =    -0.1652481148D+01 EUMP2 =    -0.54589972553797D+03
 Normal termination of Gaussian 09 at Thu Aug 26 16:54:48 2021.

 ---------------------------------------------------------
 #P Geom=AllCheck Guess=TCheck SCRF=Check MP4=FrzG4/GTBas3
 ---------------------------------------------------------

 Structure from the checkpoint file:  "/public/home/users/caep010/.cache/gau_scr/Gau-17465.chk"
 ------
 RIRMAH
 ------
 Charge =  0 Multiplicity = 1

 SCF Done:  E(RHF) =  -544.292465533     A.U. after   12 cycles
 E2 =    -0.1947995804D+01 EUMP2 =    -0.54624046133694D+03
 Normal termination of Gaussian 09 at Thu Aug 26 18:30:23 2021.

 -----------------------------------------------------------
 #P Geom=AllCheck Guess=TCheck SCRF=Check MP2=Full/GTLargeXP
 -----------------------------------------------------------

 Structure from the checkpoint file:  "/public/home/users/caep010/.cache/gau_scr/Gau-17465.chk"
 ------
 RIRMAH
 ------
 Charge =  0 Multiplicity = 1

 SCF Done:  E(RHF) =  -544.427689917     A.U. after   14 cycles
 E2 =    -0.2551529453D+01 EUMP2 =    -0.54697921936972D+03
 Normal termination of Gaussian 09 at Thu Aug 26 18:43:22 2021.
 SCF Done:  E(RHF) =  -544.471190532     A.U. after   10 cycles
 Normal termination of Gaussian 09 at Thu Aug 26 18:48:02 2021.

                         Standard orientation:
 ---------------------------------------------------------------------
 Center     Atomic      Atomic             Coordinates (Angstroms)
 Number     Number       Type             X           Y           Z
 ---------------------------------------------------------------------
      1          6           0       -0.949470   -0.114375   -0.001311
      2          7           0       -2.388911    0.128707    0.009672
      3          8           0       -2.773408    1.294996    0.039959
      4          6           0       -0.478483   -1.420909   -0.028743
      5          6           0        0.892904   -1.632295   -0.026650
      6          6           0        1.788451   -0.559126   -0.000086
      7          7           0        3.167100   -0.736473   -0.012666
      8          1           0        3.669452   -0.040328    0.524960
      9          6           0        1.288428    0.767183   -0.007266
     10          8           0       -3.136004   -0.844938   -0.012492
     11          6           0       -0.081605    0.977334   -0.000163
     12          1           0       -0.496234    1.977306   -0.003149
     13          1           0        1.282993   -2.645345   -0.027984
     14          7           0        2.224074    1.817741    0.034806
     15          1           0       -1.181885   -2.241359   -0.037107
     16          1           0        1.795040    2.729826   -0.051386
     17          1           0        2.952745    1.716663   -0.664118
     18          1           0        3.475997   -1.673917    0.201678
 ---------------------------------------------------------------------

 SCF Done:  E(RHF) =  -544.479634403     A.U. after    8 cycles

 The electronic state is 1-A.
 Alpha  occ. eigenvalues --  -20.58664 -20.58659 -15.84128 -15.59030 -15.58330
 Alpha  occ. eigenvalues --  -11.30766 -11.29362 -11.29220 -11.26324 -11.26290
 Alpha  occ. eigenvalues --  -11.25256  -1.59030  -1.38361  -1.27409  -1.21454
 Alpha  occ. eigenvalues --   -1.16864  -1.06153  -1.02430  -0.93889  -0.86609
 Alpha  occ. eigenvalues --   -0.81688  -0.76875  -0.74345  -0.71668  -0.70779
 Alpha  occ. eigenvalues --   -0.70700  -0.67796  -0.66259  -0.62350  -0.61829
 Alpha  occ. eigenvalues --   -0.59670  -0.56101  -0.53129  -0.49528  -0.48677
 Alpha  occ. eigenvalues --   -0.48215  -0.47266  -0.44510  -0.35176  -0.31436
 Alpha virt. eigenvalues --    0.02616   0.03393   0.04373   0.04531   0.05858
 Alpha virt. eigenvalues --    0.06310   0.06608   0.07757   0.08259   0.08424
 Alpha virt. eigenvalues --    0.08622   0.09050   0.09403   0.09727   0.10273

 Mulliken charges:
               1
     1  C    0.127071
     2  N    0.523283
     3  O   -0.452822
     4  C   -0.205116
     5  C   -0.226081
     6  C    0.242527
     7  N   -0.759288
     8  H    0.335413
     9  C    0.275573
    10  O   -0.445943
    11  C   -0.258125
    12  H    0.231451
    13  H    0.187930
    14  N   -0.786962
    15  H    0.255843
    16  H    0.313677
    17  H    0.329651
    18  H    0.311918
 Sum of Mulliken charges =  -0.00000

 Dipole moment (field-independent basis, Debye):
    X=              6.7313    Y=             -0.4416    Z=             -0.0698  Tot=              6.7462
 Quadrupole moment (field-independent basis, Debye-Ang):
   XX=            -72.0081   YY=            -55.4053   ZZ=            -66.5202
   XY=              0.2978   XZ=              0.8721   YZ=             -2.8754

 Normal termination of Gaussian 09 at Thu Aug 26 19:19:51 2021.
