 Gaussian 09, Revision E.01,
 Gaussian 09:  ES64L-G09RevE.01 30-Nov-2015

 ----------------
 #P G4 OPT=calcfc
 ----------------

 ------
 ROFGAV
 ------
 Symbolic Z-matrix:
 Charge =  0 Multiplicity = 1

 SCF Done:  E(RB3LYP) =  -568.232685319     A.U. after   16 cycles
 SCF Done:  E(RB3LYP) =  -568.310631279     A.U. after   15 cycles
 SCF Done:  E(RB3LYP) =  -568.338316175     A.U. after   17 cycles
 SCF Done:  E(RB3LYP) =  -568.335346579     A.U. after   17 cycles
 SCF Done:  E(RB3LYP) =  -568.341705037     A.U. after   13 cycles
 SCF Done:  E(RB3LYP) =  -568.307276108     A.U. after   14 cycles
 SCF Done:  E(RB3LYP) =  -568.341732246     A.U. after    8 cycles
 SCF Done:  E(RB3LYP) =  -568.342235987     A.U. after   17 cycles
 SCF Done:  E(RB3LYP) =  -568.342399693     A.U. after   14 cycles
 SCF Done:  E(RB3LYP) =  -568.342462007     A.U. after   13 cycles
 SCF Done:  E(RB3LYP) =  -568.342471794     A.U. after   11 cycles
 SCF Done:  E(RB3LYP) =  -568.342472713     A.U. after   11 cycles
 SCF Done:  E(RB3LYP) =  -568.342472924     A.U. after    9 cycles
 Optimization completed.
    -- Stationary point found.
 Normal termination of Gaussian 09 at Fri Aug 27 08:06:08 2021.

 ----------------------------------------------------------
 #P Geom=AllCheck Guess=TCheck SCRF=Check B3LYP/GTBas3 Freq
 ----------------------------------------------------------

 Structure from the checkpoint file:  "/public/home/users/caep010/.cache/gau_scr/Gau-118680.chk"
 ------
 ROFGAV
 ------
 Charge =  0 Multiplicity = 1

 SCF Done:  E(RB3LYP) =  -568.342472924     A.U. after    1 cycles

  Exact polarizability: 154.172  10.691 113.753  -0.690  -0.665  48.143
 Approx polarizability: 257.549  28.499 202.964  -4.807  -4.916  80.011

                      1                      2                      3
                      A                      A                      A
 Frequencies --     26.0432               100.1305               129.1283
 Red. masses --     10.5748                 4.4835                11.0077
 Frc consts  --      0.0042                 0.0265                 0.1081
 IR Inten    --      0.3084                 1.3982                 5.8547

                      4                      5                      6
                      A                      A                      A
 Frequencies --    147.0517               225.1599               266.5035
 Red. masses --      5.3984                 1.0876                 4.1921
 Frc consts  --      0.0688                 0.0325                 0.1754
 IR Inten    --      3.5790                 1.1380                 1.4721

                      7                      8                      9
                      A                      A                      A
 Frequencies --    271.8815               358.6465               390.5605
 Red. masses --      6.4901                 4.8823                 5.8188
 Frc consts  --      0.2827                 0.3700                 0.5230
 IR Inten    --      1.5730                 2.5830                 0.1863

                     10                     11                     12
                      A                      A                      A
 Frequencies --    417.0299               440.3302               462.0411
 Red. masses --      7.6664                 3.5112                 5.0770
 Frc consts  --      0.7856                 0.4011                 0.6386
 IR Inten    --      0.4465                 0.1246                 0.0813

                     13                     14                     15
                      A                      A                      A
 Frequencies --    517.7526               587.6227               611.6907
 Red. masses --      7.5340                 5.5850                 5.1225
 Frc consts  --      1.1899                 1.1362                 1.1293
 IR Inten    --      0.7146                 2.5852                12.5167

                     16                     17                     18
                      A                      A                      A
 Frequencies --    690.3411               713.6682               740.1722
 Red. masses --      7.2682                 3.4181                 5.0361
 Frc consts  --      2.0408                 1.0257                 1.6256
 IR Inten    --      1.9929                 0.9024                 7.3810

                     19                     20                     21
                      A                      A                      A
 Frequencies --    792.6010               824.0864               857.0363
 Red. masses --      6.1114                 9.0545                 1.3327
 Frc consts  --      2.2620                 3.6229                 0.5767
 IR Inten    --      9.7794                28.1277                12.1484

                     22                     23                     24
                      A                      A                      A
 Frequencies --    932.3595               956.4491               978.5582
 Red. masses --      6.2464                 1.5102                 1.3317
 Frc consts  --      3.1992                 0.8140                 0.7514
 IR Inten    --     11.9593                 8.4398                 0.3737

                     25                     26                     27
                      A                      A                      A
 Frequencies --   1023.8507              1060.5408              1088.7117
 Red. masses --      1.4711                 1.5804                 2.7476
 Frc consts  --      0.9086                 1.0473                 1.9188
 IR Inten    --      1.8595                 3.9176                18.4327

                     28                     29                     30
                      A                      A                      A
 Frequencies --   1180.4856              1218.2123              1227.7171
 Red. masses --      1.3747                 1.9374                 7.6498
 Frc consts  --      1.1287                 1.6940                 6.7935
 IR Inten    --      6.2021                 3.8654                 6.2900

                     31                     32                     33
                      A                      A                      A
 Frequencies --   1298.7866              1328.3897              1390.4457
 Red. masses --      1.4688                 6.2485                12.3770
 Frc consts  --      1.4597                 6.4964                14.0985
 IR Inten    --      4.4404                 6.9206               225.2962

                     34                     35                     36
                      A                      A                      A
 Frequencies --   1417.7002              1425.0506              1473.9983
 Red. masses --      1.2088                 3.0990                 1.0553
 Frc consts  --      1.4315                 3.7079                 1.3509
 IR Inten    --      1.7231                 5.3196                 7.2211

                     37                     38                     39
                      A                      A                      A
 Frequencies --   1483.2834              1520.2790              1580.8988
 Red. masses --      1.1552                 2.8528                 6.1104
 Frc consts  --      1.4975                 3.8848                 8.9976
 IR Inten    --     21.7853                12.9570                11.4212

                     40                     41                     42
                      A                      A                      A
 Frequencies --   1626.4663              1665.6160              2349.4960
 Red. masses --      8.9347                 8.3975                12.6782
 Frc consts  --     13.9259                13.7261                41.2341
 IR Inten    --    115.0874               114.1000                20.4677

                     43                     44                     45
                      A                      A                      A
 Frequencies --   3056.4600              3124.9101              3134.2295
 Red. masses --      1.0355                 1.0988                 1.1035
 Frc consts  --      5.6993                 6.3217                 6.3867
 IR Inten    --      9.2467                 2.9076                15.9493

                     46                     47                     48
                      A                      A                      A
 Frequencies --   3189.1107              3210.7179              3245.6851
 Red. masses --      1.0881                 1.0946                 1.0913
 Frc consts  --      6.5201                 6.6481                 6.7733
 IR Inten    --      4.7053                 1.7139                 7.8161

 - Thermochemistry -
 -------------------
 Temperature   298.150 Kelvin.  Pressure   1.00000 Atm.
 Atom     1 has atomic number  8 and mass  15.99491

 Molecular mass:   162.04293 amu.
 Principal axes and moments of inertia in atomic units:
                           1         2         3
     Eigenvalues --  1085.536632640.746783700.60549
           X            0.99970   0.02440   0.00060
           Y           -0.02440   0.99970   0.00220
           Z           -0.00054  -0.00221   1.00000
 This molecule is an asymmetric top.
 Rotational symmetry number  1.
 Warning -- assumption of classical behavior for rotation
           may cause significant error
 Rotational temperatures (Kelvin)      0.07979     0.03280     0.02341
 Rotational constants (GHZ):           1.66253     0.68342     0.48769
 Zero-point vibrational energy     339487.6 (Joules/Mol)
                                   81.13947 (Kcal/Mol)
 Warning -- explicit consideration of  15 degrees of freedom as
           vibrations may cause significant error
 Vibrational temperatures:     37.47   144.07   185.79   211.57   323.95
          (Kelvin)            383.44   391.18   516.01   561.93   600.01
                              633.54   664.77   744.93   845.46   880.09
                              993.25  1026.81  1064.94  1140.37  1185.68
                             1233.08  1341.46  1376.12  1407.93  1473.09
                             1525.88  1566.41  1698.45  1752.73  1766.41
                             1868.66  1911.25  2000.54  2039.75  2050.33
                             2120.75  2134.11  2187.34  2274.56  2340.12
                             2396.45  3380.40  4397.56  4496.04  4509.45
                             4588.41  4619.50  4669.81

 Zero-point correction=                           0.129304 (Hartree/Particle)
 Thermal correction to Energy=                    0.139423
 Thermal correction to Enthalpy=                  0.140367
 Thermal correction to Gibbs Free Energy=         0.092541
 Sum of electronic and zero-point Energies=           -568.213169
 Sum of electronic and thermal Energies=              -568.203050
 Sum of electronic and thermal Enthalpies=            -568.202106
 Sum of electronic and thermal Free Energies=         -568.249932

                     E (Thermal)             CV                S
                      KCal/Mol        Cal/Mol-Kelvin    Cal/Mol-Kelvin
 Total                   87.489             37.514            100.657
 Electronic               0.000              0.000              0.000
 Translational            0.889              2.981             41.157
 Rotational               0.889              2.981             30.740
 Vibrational             85.712             31.553             28.760
 Vibration     1          0.593              1.985              6.110
 Vibration     2          0.604              1.949              3.452
 Vibration     3          0.612              1.924              2.959
 Vibration     4          0.617              1.906              2.710
 Vibration     5          0.650              1.803              1.917
 Vibration     6          0.672              1.735              1.619
 Vibration     7          0.675              1.725              1.584
 Vibration     8          0.733              1.557              1.128
 Vibration     9          0.758              1.490              0.998
 Vibration    10          0.780              1.433              0.902
 Vibration    11          0.800              1.382              0.826
 Vibration    12          0.820              1.334              0.760
 Vibration    13          0.873              1.211              0.615
 Vibration    14          0.945              1.058              0.471
 Vibration    15          0.971              1.007              0.430

 Normal termination of Gaussian 09 at Fri Aug 27 08:08:23 2021.

 -----------------------------------------------------------------
 #P Geom=AllCheck Guess=TCheck SCRF=Check CCSD(T,E4T,FrzG4)/GTBas1
 -----------------------------------------------------------------

 Structure from the checkpoint file:  "/public/home/users/caep010/.cache/gau_scr/Gau-118680.chk"
 ------
 ROFGAV
 ------
 Charge =  0 Multiplicity = 1

 SCF Done:  E(RHF) =  -564.932576355     A.U. after   16 cycles
 E2 =    -0.1710993799D+01 EUMP2 =    -0.56664357015418D+03
 CCSD(T)
 CCSD(T)= -0.56675079891D+03
 7679637\MP4SDQ=-566.6741715\CCSD=-566.6697749\CCSD(T)=-566.7507989\RMS
 Normal termination of Gaussian 09 at Fri Aug 27 08:53:38 2021.

 ---------------------------------------------------------
 #P Geom=AllCheck Guess=TCheck SCRF=Check MP4=FrzG4/GTBas2
 ---------------------------------------------------------

 Structure from the checkpoint file:  "/public/home/users/caep010/.cache/gau_scr/Gau-118680.chk"
 ------
 ROFGAV
 ------
 Charge =  0 Multiplicity = 1

 SCF Done:  E(RHF) =  -564.946875314     A.U. after   16 cycles
 E2 =    -0.1730243962D+01 EUMP2 =    -0.56667711927595D+03
 Normal termination of Gaussian 09 at Fri Aug 27 09:10:45 2021.

 ---------------------------------------------------------
 #P Geom=AllCheck Guess=TCheck SCRF=Check MP4=FrzG4/GTBas3
 ---------------------------------------------------------

 Structure from the checkpoint file:  "/public/home/users/caep010/.cache/gau_scr/Gau-118680.chk"
 ------
 ROFGAV
 ------
 Charge =  0 Multiplicity = 1

 SCF Done:  E(RHF) =  -564.986626826     A.U. after   13 cycles
 E2 =    -0.2029129394D+01 EUMP2 =    -0.56701575621999D+03
 Normal termination of Gaussian 09 at Fri Aug 27 11:29:43 2021.

 -----------------------------------------------------------
 #P Geom=AllCheck Guess=TCheck SCRF=Check MP2=Full/GTLargeXP
 -----------------------------------------------------------

 Structure from the checkpoint file:  "/public/home/users/caep010/.cache/gau_scr/Gau-118680.chk"
 ------
 ROFGAV
 ------
 Charge =  0 Multiplicity = 1

 SCF Done:  E(RHF) =  -565.118646226     A.U. after   15 cycles
 E2 =    -0.2670260093D+01 EUMP2 =    -0.56778890631844D+03
 Normal termination of Gaussian 09 at Fri Aug 27 11:46:37 2021.
 SCF Done:  E(RHF) =  -565.163024091     A.U. after   10 cycles
 Normal termination of Gaussian 09 at Fri Aug 27 11:52:09 2021.

                         Standard orientation:
 ---------------------------------------------------------------------
 Center     Atomic      Atomic             Coordinates (Angstroms)
 Number     Number       Type             X           Y           Z
 ---------------------------------------------------------------------
      1          8           0        1.462423   -2.361760    0.224666
      2          7           0        1.736813   -1.193266   -0.010343
      3          6           0        0.625421   -0.215463    0.003108
      4          6           0        0.858328    1.171441    0.027173
      5          6           0        2.210539    1.832972    0.057799
      6          1           0        2.839651    1.433627    0.856351
      7          6           0       -0.652361   -0.761860   -0.008651
      8          1           0        2.089409    2.908792    0.203373
      9          1           0       -0.760972   -1.837129   -0.016137
     10          6           0       -1.765078    0.078112   -0.011021
     11          6           0       -3.085591   -0.470636   -0.034977
     12          7           0       -4.157763   -0.905839   -0.054555
     13          6           0       -1.570672    1.465416    0.013524
     14          1           0       -2.428268    2.127858    0.016645
     15          6           0       -0.285864    1.982534    0.037978
     16          1           0       -0.151684    3.058365    0.065775
     17          1           0        2.757094    1.659496   -0.872120
     18          8           0        2.861714   -0.782285   -0.263315
 ---------------------------------------------------------------------

 SCF Done:  E(RHF) =  -565.171291493     A.U. after    9 cycles

 The electronic state is 1-A.
 Alpha  occ. eigenvalues --  -20.61462 -20.61330 -15.86862 -15.58747 -11.33240
 Alpha  occ. eigenvalues --  -11.31625 -11.31150 -11.30454 -11.30194 -11.29144
 Alpha  occ. eigenvalues --  -11.28107 -11.25562  -1.62089  -1.41438  -1.24394
 Alpha  occ. eigenvalues --   -1.22007  -1.12342  -1.10283  -1.01094  -0.96653
 Alpha  occ. eigenvalues --   -0.88752  -0.86389  -0.81093  -0.74799  -0.73801
 Alpha  occ. eigenvalues --   -0.73136  -0.69939  -0.69058  -0.64713  -0.60984
 Alpha  occ. eigenvalues --   -0.59060  -0.57836  -0.56859  -0.56811  -0.55633
 Alpha  occ. eigenvalues --   -0.51150  -0.50476  -0.49641  -0.48297  -0.46876
 Alpha  occ. eigenvalues --   -0.40049  -0.37589
 Alpha virt. eigenvalues --    0.02078   0.02419   0.03361   0.03713   0.04651
 Alpha virt. eigenvalues --    0.05375   0.05670   0.05775   0.05976   0.06652
 Alpha virt. eigenvalues --    0.07314   0.07508   0.07920   0.08513   0.09347

 Mulliken charges:
               1
     1  O   -0.432460
     2  N    0.505544
     3  C    0.112601
     4  C    0.238497
     5  C   -0.680113
     6  H    0.216364
     7  C   -0.251078
     8  H    0.182104
     9  H    0.276728
    10  C    0.382188
    11  C    0.076387
    12  N   -0.422876
    13  C   -0.269920
    14  H    0.237983
    15  C   -0.186117
    16  H    0.215365
    17  H    0.216704
    18  O   -0.417905
 Sum of Mulliken charges =  -0.00000

 Dipole moment (field-independent basis, Debye):
    X=              1.4582    Y=              5.2955    Z=              0.1226  Tot=              5.4940
 Quadrupole moment (field-independent basis, Debye-Ang):
   XX=            -93.9359   YY=            -67.4895   ZZ=            -69.7135
   XY=              0.0055   XZ=              0.4601   YZ=              0.7473

 Normal termination of Gaussian 09 at Fri Aug 27 12:33:44 2021.
