 Gaussian 09, Revision E.01,
 Gaussian 09:  ES64L-G09RevE.01 30-Nov-2015

 -----
 #P G4
 -----

 ------
 SEGRUR
 ------
 Symbolic Z-matrix:
 Charge =  0 Multiplicity = 1

 SCF Done:  E(RB3LYP) =  -508.079376734     A.U. after   15 cycles
 SCF Done:  E(RB3LYP) =  -508.163526971     A.U. after   13 cycles
 SCF Done:  E(RB3LYP) =  -508.183030420     A.U. after   14 cycles
 SCF Done:  E(RB3LYP) =  -508.173902122     A.U. after   17 cycles
 SCF Done:  E(RB3LYP) =  -508.183789667     A.U. after   12 cycles
 SCF Done:  E(RB3LYP) =  -508.185261868     A.U. after   13 cycles
 SCF Done:  E(RB3LYP) =  -508.185524028     A.U. after   12 cycles
 SCF Done:  E(RB3LYP) =  -508.185575597     A.U. after   11 cycles
 SCF Done:  E(RB3LYP) =  -508.185673031     A.U. after   12 cycles
 SCF Done:  E(RB3LYP) =  -508.185713551     A.U. after   13 cycles
 SCF Done:  E(RB3LYP) =  -508.185900455     A.U. after   10 cycles
 SCF Done:  E(RB3LYP) =  -508.185902499     A.U. after   10 cycles
 SCF Done:  E(RB3LYP) =  -508.185902912     A.U. after    9 cycles
 Optimization completed.
    -- Stationary point found.
 Normal termination of Gaussian 09 at Tue Aug 24 20:01:53 2021.

 ----------------------------------------------------------
 #P Geom=AllCheck Guess=TCheck SCRF=Check B3LYP/GTBas3 Freq
 ----------------------------------------------------------

 Structure from the checkpoint file:  "/public/home/users/caep010/.cache/gau_scr/Gau-3664.chk"
 ------
 SEGRUR
 ------
 Charge =  0 Multiplicity = 1

 SCF Done:  E(RB3LYP) =  -508.185902912     A.U. after    1 cycles

  Exact polarizability: 107.774   7.197  97.646  -0.171  -0.093  35.480
 Approx polarizability: 172.651  18.865 192.237   0.671   0.664  58.112

                      1                      2                      3
                      A                      A                      A
 Frequencies --     53.5391               163.7424               213.0862
 Red. masses --     10.2732                 6.1873                 4.1541
 Frc consts  --      0.0173                 0.0977                 0.1111
 IR Inten    --      0.1221                 2.9081                 7.7560

                      4                      5                      6
                      A                      A                      A
 Frequencies --    217.5328               373.7012               387.8960
 Red. masses --      5.9738                 3.7104                 1.7175
 Frc consts  --      0.1666                 0.3053                 0.1523
 IR Inten    --      1.0952                18.5667                73.3971

                      7                      8                      9
                      A                      A                      A
 Frequencies --    409.5113               447.0399               478.3916
 Red. masses --      2.7406                 2.6846                 1.3789
 Frc consts  --      0.2708                 0.3161                 0.1859
 IR Inten    --     41.2669                47.2348               147.9889

                     10                     11                     12
                      A                      A                      A
 Frequencies --    539.4573               576.7563               586.1056
 Red. masses --      4.8047                 5.9749                 4.6958
 Frc consts  --      0.8238                 1.1710                 0.9504
 IR Inten    --      8.6069                 1.3038                11.5760

                     13                     14                     15
                      A                      A                      A
 Frequencies --    703.3326               759.4576               773.9293
 Red. masses --      7.7235                 2.9003                 3.8516
 Frc consts  --      2.2511                 0.9856                 1.3592
 IR Inten    --     19.0472                 1.2967                33.0052

                     16                     17                     18
                      A                      A                      A
 Frequencies --    846.0316               852.4184               908.8600
 Red. masses --      8.2700                 1.5086                 1.9129
 Frc consts  --      3.4876                 0.6459                 0.9310
 IR Inten    --     32.6984                 1.8179                20.3927

                     19                     20                     21
                      A                      A                      A
 Frequencies --    952.4278               989.7954              1004.6678
 Red. masses --      4.5356                 1.3608                 7.3935
 Frc consts  --      2.4241                 0.7855                 4.3969
 IR Inten    --      0.4271                 0.0140                 7.0603

                     22                     23                     24
                      A                      A                      A
 Frequencies --   1055.7118              1105.7610              1138.0831
 Red. masses --      1.5133                 1.5671                 1.5170
 Frc consts  --      0.9937                 1.1289                 1.1577
 IR Inten    --      4.5630                18.5917                 0.7883

                     25                     26                     27
                      A                      A                      A
 Frequencies --   1298.7337              1328.9962              1354.1479
 Red. masses --      1.8069                 7.5926                 1.8112
 Frc consts  --      1.7957                 7.9012                 1.9568
 IR Inten    --     14.6484                28.1470                 4.5826

                     28                     29                     30
                      A                      A                      A
 Frequencies --   1401.3202              1463.2843              1511.8655
 Red. masses --     14.3896                 3.9562                 2.4691
 Frc consts  --     16.6484                 4.9909                 3.3252
 IR Inten    --    194.0843                95.5404                43.7763

                     31                     32                     33
                      A                      A                      A
 Frequencies --   1604.5211              1625.0761              1643.3135
 Red. masses --      6.1897                 2.3011                 2.4133
 Frc consts  --      9.3888                 3.5804                 3.8397
 IR Inten    --     79.1010                66.8319               432.6283

                     34                     35                     36
                      A                      A                      A
 Frequencies --   1673.5698              3164.5428              3231.4682
 Red. masses --      7.1555                 1.0901                 1.0913
 Frc consts  --     11.8081                 6.4318                 6.7142
 IR Inten    --     53.9838                20.1384                 3.7555

                     37                     38                     39
                      A                      A                      A
 Frequencies --   3256.1173              3593.7894              3713.7593
 Red. masses --      1.0929                 1.0460                 1.1013
 Frc consts  --      6.8268                 7.9593                 8.9489
 IR Inten    --      4.2602                60.7682                34.5126

 - Thermochemistry -
 -------------------
 Temperature   298.150 Kelvin.  Pressure   1.00000 Atm.
 Atom     1 has atomic number  6 and mass  12.00000

 Molecular mass:   139.03818 amu.
 Principal axes and moments of inertia in atomic units:
                           1         2         3
     Eigenvalues --   627.453711834.582092461.03288
           X            0.99973   0.02320  -0.00253
           Y           -0.02321   0.99972  -0.00363
           Z            0.00244   0.00369   0.99999
 This molecule is an asymmetric top.
 Rotational symmetry number  1.
 Warning -- assumption of classical behavior for rotation
           may cause significant error
 Rotational temperatures (Kelvin)      0.13804     0.04721     0.03519
 Rotational constants (GHZ):           2.87629     0.98373     0.73333
 Zero-point vibrational energy     283525.4 (Joules/Mol)
                                   67.76419 (Kcal/Mol)
 Warning -- explicit consideration of  12 degrees of freedom as
           vibrations may cause significant error
 Vibrational temperatures:     77.03   235.59   306.58   312.98   537.67
          (Kelvin)            558.10   589.19   643.19   688.30   776.16
                              829.82   843.27  1011.94  1092.69  1113.51
                             1217.25  1226.44  1307.65  1370.33  1424.09
                             1445.49  1518.93  1590.94  1637.45  1868.59
                             1912.13  1948.31  2016.18  2105.34  2175.23
                             2308.55  2338.12  2364.36  2407.89  4553.07
                             4649.36  4684.82  5170.65  5343.26

 Zero-point correction=                           0.107989 (Hartree/Particle)
 Thermal correction to Energy=                    0.116070
 Thermal correction to Enthalpy=                  0.117014
 Thermal correction to Gibbs Free Energy=         0.074608
 Sum of electronic and zero-point Energies=           -508.077914
 Sum of electronic and thermal Energies=              -508.069833
 Sum of electronic and thermal Enthalpies=            -508.068889
 Sum of electronic and thermal Free Energies=         -508.111295

                     E (Thermal)             CV                S
                      KCal/Mol        Cal/Mol-Kelvin    Cal/Mol-Kelvin
 Total                   72.835             30.666             89.251
 Electronic               0.000              0.000              0.000
 Translational            0.889              2.981             40.700
 Rotational               0.889              2.981             29.428
 Vibrational             71.057             24.704             19.122
 Vibration     1          0.596              1.976              4.682
 Vibration     2          0.623              1.887              2.506
 Vibration     3          0.644              1.821              2.017
 Vibration     4          0.646              1.814              1.980
 Vibration     5          0.745              1.526              1.065
 Vibration     6          0.756              1.496              1.008
 Vibration     7          0.774              1.450              0.928
 Vibration     8          0.806              1.367              0.805
 Vibration     9          0.835              1.298              0.714
 Vibration    10          0.895              1.163              0.566
 Vibration    11          0.933              1.082              0.491
 Vibration    12          0.943              1.061              0.474

 Optimization completed.
    -- Stationary point found.
 Normal termination of Gaussian 09 at Tue Aug 24 20:03:11 2021.

 -----------------------------------------------------------------
 #P Geom=AllCheck Guess=TCheck SCRF=Check CCSD(T,E4T,FrzG4)/GTBas1
 -----------------------------------------------------------------

 Structure from the checkpoint file:  "/public/home/users/caep010/.cache/gau_scr/Gau-3664.chk"
 ------
 SEGRUR
 ------
 Charge =  0 Multiplicity = 1

 SCF Done:  E(RHF) =  -505.196196330     A.U. after   15 cycles
 E2 =    -0.1496200364D+01 EUMP2 =    -0.50669239669423D+03
 CCSD(T)
 CCSD(T)= -0.50677722057D+03
 MP4SDTQ=-506.7919945\MP4SDQ=-506.7134679\CCSD=-506.7098432\CCSD(T)=-50
 Normal termination of Gaussian 09 at Tue Aug 24 20:18:51 2021.

 ---------------------------------------------------------
 #P Geom=AllCheck Guess=TCheck SCRF=Check MP4=FrzG4/GTBas2
 ---------------------------------------------------------

 Structure from the checkpoint file:  "/public/home/users/caep010/.cache/gau_scr/Gau-3664.chk"
 ------
 SEGRUR
 ------
 Charge =  0 Multiplicity = 1

 SCF Done:  E(RHF) =  -505.211786533     A.U. after   14 cycles
 E2 =    -0.1516587269D+01 EUMP2 =    -0.50672837380129D+03
 Normal termination of Gaussian 09 at Tue Aug 24 20:24:54 2021.

 ---------------------------------------------------------
 #P Geom=AllCheck Guess=TCheck SCRF=Check MP4=FrzG4/GTBas3
 ---------------------------------------------------------

 Structure from the checkpoint file:  "/public/home/users/caep010/.cache/gau_scr/Gau-3664.chk"
 ------
 SEGRUR
 ------
 Charge =  0 Multiplicity = 1

 SCF Done:  E(RHF) =  -505.250484705     A.U. after   13 cycles
 E2 =    -0.1779697532D+01 EUMP2 =    -0.50703018223655D+03
 Normal termination of Gaussian 09 at Tue Aug 24 21:05:42 2021.

 -----------------------------------------------------------
 #P Geom=AllCheck Guess=TCheck SCRF=Check MP2=Full/GTLargeXP
 -----------------------------------------------------------

 Structure from the checkpoint file:  "/public/home/users/caep010/.cache/gau_scr/Gau-3664.chk"
 ------
 SEGRUR
 ------
 Charge =  0 Multiplicity = 1

 SCF Done:  E(RHF) =  -505.376844339     A.U. after   14 cycles
 E2 =    -0.2329160326D+01 EUMP2 =    -0.50770600466403D+03
 Normal termination of Gaussian 09 at Tue Aug 24 21:14:43 2021.
 SCF Done:  E(RHF) =  -505.416761789     A.U. after   10 cycles
 Normal termination of Gaussian 09 at Tue Aug 24 21:17:59 2021.

                         Standard orientation:
 ---------------------------------------------------------------------
 Center     Atomic      Atomic             Coordinates (Angstroms)
 Number     Number       Type             X           Y           Z
 ---------------------------------------------------------------------
      1          6           0        0.582580    0.115248   -0.001811
      2          7           0        2.002605   -0.307045    0.000888
      3          8           0        2.849456    0.574161   -0.003386
      4          8           0        2.235654   -1.507707    0.007867
      5          6           0       -0.395378   -0.855943   -0.008515
      6          6           0        0.275837    1.471212    0.002085
      7          1           0        1.051795    2.221551    0.007377
      8          6           0       -1.077827    1.785464    0.005246
      9          7           0       -2.061728    0.884713    0.005356
     10          1           0       -0.128353   -1.903638   -0.018544
     11          6           0       -1.733397   -0.414651   -0.006838
     12          7           0       -2.774447   -1.307791   -0.062022
     13          1           0       -3.678044   -0.921899    0.163403
     14          1           0       -1.391285    2.826224    0.012721
     15          1           0       -2.610902   -2.250987    0.248640
 ---------------------------------------------------------------------

 SCF Done:  E(RHF) =  -505.424503729     A.U. after    8 cycles

 The electronic state is 1-A.
 Alpha  occ. eigenvalues --  -20.61205 -20.61089 -15.86249 -15.59003 -15.58116
 Alpha  occ. eigenvalues --  -11.34681 -11.33257 -11.30166 -11.26827 -11.25836
 Alpha  occ. eigenvalues --   -1.61620  -1.41056  -1.31178  -1.21665  -1.15437
 Alpha  occ. eigenvalues --   -1.04067  -0.99767  -0.88795  -0.84492  -0.79130
 Alpha  occ. eigenvalues --   -0.75387  -0.72975  -0.72539  -0.69505  -0.68429
 Alpha  occ. eigenvalues --   -0.64866  -0.63507  -0.59509  -0.56588  -0.50817
 Alpha  occ. eigenvalues --   -0.50657  -0.48928  -0.46398  -0.45076  -0.41945
 Alpha  occ. eigenvalues --   -0.33430
 Alpha virt. eigenvalues --    0.02378   0.02965   0.03816   0.04483   0.05406
 Alpha virt. eigenvalues --    0.05898   0.06545   0.07760   0.08192   0.08251
 Alpha virt. eigenvalues --    0.08398   0.08797   0.09410   0.09803   0.10524

 Mulliken charges:
               1
     1  C    0.227386
     2  N    0.519625
     3  O   -0.412834
     4  O   -0.426369
     5  C   -0.209715
     6  C   -0.255629
     7  H    0.262551
     8  C   -0.025433
     9  N   -0.540289
    10  H    0.237937
    11  C    0.462094
    12  N   -0.726391
    13  H    0.341224
    14  H    0.227531
    15  H    0.318312
 Sum of Mulliken charges =  -0.00000

 Dipole moment (field-independent basis, Debye):
    X=             -3.7495    Y=             -0.3035    Z=              0.7848  Tot=              3.8427
 Quadrupole moment (field-independent basis, Debye-Ang):
   XX=            -65.8019   YY=            -50.8785   ZZ=            -59.0177
   XY=              7.4317   XZ=             -2.6909   YZ=             -1.5419

 Normal termination of Gaussian 09 at Tue Aug 24 21:40:58 2021.
