 Gaussian 09, Revision E.01,
 Gaussian 09:  ES64L-G09RevE.01 30-Nov-2015

 -----
 #P G4
 -----

 ------
 SORBUW
 ------
 Symbolic Z-matrix:
 Charge =  0 Multiplicity = 1

 SCF Done:  E(RB3LYP) =  -645.681553041     A.U. after   14 cycles
 SCF Done:  E(RB3LYP) =  -645.747164834     A.U. after   12 cycles
 SCF Done:  E(RB3LYP) =  -645.766349814     A.U. after   13 cycles
 SCF Done:  E(RB3LYP) =  -645.766797948     A.U. after   11 cycles
 SCF Done:  E(RB3LYP) =  -645.766944670     A.U. after   12 cycles
 SCF Done:  E(RB3LYP) =  -645.767002073     A.U. after   10 cycles
 SCF Done:  E(RB3LYP) =  -645.767016083     A.U. after    8 cycles
 SCF Done:  E(RB3LYP) =  -645.767017853     A.U. after    7 cycles
 Optimization completed.
    -- Stationary point found.
 Normal termination of Gaussian 09 at Tue Aug 24 20:02:32 2021.

 ----------------------------------------------------------
 #P Geom=AllCheck Guess=TCheck SCRF=Check B3LYP/GTBas3 Freq
 ----------------------------------------------------------

 Structure from the checkpoint file:  "/public/home/users/caep010/.cache/gau_scr/Gau-51890.chk"
 ------
 SORBUW
 ------
 Charge =  0 Multiplicity = 1

 SCF Done:  E(RB3LYP) =  -645.767017853     A.U. after    1 cycles

  Exact polarizability:  58.347  11.863 120.878   0.000   0.000 225.479
 Approx polarizability:  98.399  22.173 240.850  -0.000  -0.000 332.561

                      1                      2                      3
                      A                      B                      A
 Frequencies --     58.9732                61.0575                87.1837
 Red. masses --      6.9461                 6.6423                 4.0391
 Frc consts  --      0.0142                 0.0146                 0.0181
 IR Inten    --      0.4726                 1.5657                 2.2344

                      4                      5                      6
                      B                      B                      B
 Frequencies --    115.2750               174.4385               251.1048
 Red. masses --      5.6437                 6.3652                 6.5102
 Frc consts  --      0.0442                 0.1141                 0.2419
 IR Inten    --      1.4769                 2.2153                 0.8656

                      7                      8                      9
                      A                      B                      A
 Frequencies --    277.9945               334.7776               426.6797
 Red. masses --      9.3923                 6.1050                 3.2059
 Frc consts  --      0.4277                 0.4031                 0.3439
 IR Inten    --      0.1973                 0.2953                 1.6445

                     10                     11                     12
                      B                      A                      B
 Frequencies --    438.5652               513.2378               523.9039
 Red. masses --      4.7449                 7.0410                 3.4797
 Frc consts  --      0.5377                 1.0928                 0.5627
 IR Inten    --      0.2196                11.5734                 4.6832

                     13                     14                     15
                      B                      A                      B
 Frequencies --    543.8548               617.2106               628.6977
 Red. masses --      5.2505                 3.5794                 5.1914
 Frc consts  --      0.9150                 0.8034                 1.2090
 IR Inten    --      1.8143                 4.6778                 2.9482

                     16                     17                     18
                      B                      A                      B
 Frequencies --    646.5405               696.2566               714.2808
 Red. masses --      5.4024                 1.2849                 3.7403
 Frc consts  --      1.3305                 0.3670                 1.1243
 IR Inten    --      1.4148                 2.0214                11.8894

                     19                     20                     21
                      A                      B                      B
 Frequencies --    730.2467               750.4202               784.9344
 Red. masses --      7.2108                 1.1940                 4.7767
 Frc consts  --      2.2656                 0.3962                 1.7340
 IR Inten    --      0.1521                77.7422                18.5284

                     22                     23                     24
                      B                      A                      A
 Frequencies --    824.8238               849.2321               866.2321
 Red. masses --      1.2535                 1.2605                 2.1014
 Frc consts  --      0.5025                 0.5356                 0.9290
 IR Inten    --      0.7379                 0.0872                30.5157

                     25                     26                     27
                      A                      B                      B
 Frequencies --    868.2818               879.6750               888.8549
 Red. masses --      2.3238                 5.5799                 1.8370
 Frc consts  --      1.0322                 2.5440                 0.8551
 IR Inten    --     32.5444                 1.3194                28.0669

                     28                     29                     30
                      A                      A                      B
 Frequencies --    938.5365               974.9195               998.0413
 Red. masses --      3.9420                 1.3132                 1.3564
 Frc consts  --      2.0458                 0.7354                 0.7960
 IR Inten    --     23.1741                 0.7876                 0.6625

                     31                     32                     33
                      A                      A                      A
 Frequencies --   1023.2045              1036.9618              1089.3597
 Red. masses --      2.9080                 1.7070                 1.8955
 Frc consts  --      1.7938                 1.0815                 1.3253
 IR Inten    --      0.1185                11.2733                69.7198

                     34                     35                     36
                      B                      A                      B
 Frequencies --   1103.6041              1129.7767              1130.0846
 Red. masses --      1.2512                 2.8212                 1.2708
 Frc consts  --      0.8979                 2.1216                 0.9562
 IR Inten    --     11.8232                99.1472                12.1143

                     37                     38                     39
                      A                      A                      B
 Frequencies --   1148.6535              1204.6306              1276.6471
 Red. masses --      1.8815                 1.3162                 1.7363
 Frc consts  --      1.4626                 1.1253                 1.6674
 IR Inten    --      6.3338                13.3862                 2.9070

                     40                     41                     42
                      B                      B                      A
 Frequencies --   1308.0281              1337.5062              1364.3292
 Red. masses --      1.4968                 1.9673                 3.6631
 Frc consts  --      1.5089                 2.0735                 4.0173
 IR Inten    --      0.0867                 0.0044               411.7498

                     43                     44                     45
                      B                      A                      A
 Frequencies --   1368.0871              1390.8065              1433.9116
 Red. masses --     10.1728                 9.8320                 4.4124
 Frc consts  --     11.2181                11.2053                 5.3452
 IR Inten    --      6.9716               345.1341                 4.1998

                     46                     47                     48
                      B                      A                      A
 Frequencies --   1456.3707              1508.5267              1540.9056
 Red. masses --      3.7417                 2.8622                 3.1226
 Frc consts  --      4.6759                 3.8375                 4.3684
 IR Inten    --      0.8369                37.1432               246.4683

                     49                     50                     51
                      B                      B                      A
 Frequencies --   1577.4109              1606.0378              1639.0635
 Red. masses --      4.6741                 9.2426                 6.1315
 Frc consts  --      6.8524                14.0461                 9.7053
 IR Inten    --      7.4251                80.5095               179.8616

                     52                     53                     54
                      B                      A                      B
 Frequencies --   1655.3074              3210.9975              3211.9527
 Red. masses --      9.9397                 1.0890                 1.0892
 Frc consts  --     16.0466                 6.6156                 6.6203
 IR Inten    --    128.8142                 3.4480                 1.8160

                     55                     56                     57
                      B                      A                      B
 Frequencies --   3236.9861              3237.2502              3247.2966
 Red. masses --      1.0924                 1.0933                 1.0883
 Frc consts  --      6.7441                 6.7507                 6.7615
 IR Inten    --      0.7335                 3.4686                 3.1908

                     58                     59                     60
                      A                      B                      A
 Frequencies --   3259.7633              3282.5627              3287.4384
 Red. masses --      1.0944                 1.0981                 1.1046
 Frc consts  --      6.8516                 6.9713                 7.0335
 IR Inten    --      1.3755                 0.1962                 1.6122

 - Thermochemistry -
 -------------------
 Temperature   298.150 Kelvin.  Pressure   1.00000 Atm.
 Atom     1 has atomic number  7 and mass  14.00307

 Molecular mass:   188.05858 amu.
 Principal axes and moments of inertia in atomic units:
                           1         2         3
     Eigenvalues --   649.939145691.151896269.79758
           X            0.00000   0.15368   0.98812
           Y            0.00000   0.98812  -0.15368
           Z            1.00000   0.00000   0.00000
 This molecule is an asymmetric top.
 Rotational symmetry number  2.
 Warning -- assumption of classical behavior for rotation
           may cause significant error
 Rotational temperatures (Kelvin)      0.13326     0.01522     0.01381
 Rotational constants (GHZ):           2.77678     0.31711     0.28785
 Zero-point vibrational energy     435247.4 (Joules/Mol)
                                  104.02664 (Kcal/Mol)
 Warning -- explicit consideration of  14 degrees of freedom as
           vibrations may cause significant error
 Vibrational temperatures:     84.85    87.85   125.44   165.85   250.98
          (Kelvin)            361.28   399.97   481.67   613.90   631.00
                              738.43   753.78   782.48   888.03   904.55
                              930.23  1001.76  1027.69  1050.66  1079.69
                             1129.34  1186.74  1221.85  1246.31  1249.26
                             1265.65  1278.86  1350.34  1402.69  1435.96
                             1472.16  1491.95  1567.34  1587.84  1625.49
                             1625.94  1652.65  1733.19  1836.81  1881.96
                             1924.37  1962.96  1968.37  2001.06  2063.08
                             2095.39  2170.43  2217.02  2269.54  2310.73
                             2358.24  2381.62  4619.90  4621.28  4657.30
                             4657.68  4672.13  4690.07  4722.87  4729.88

 Zero-point correction=                           0.165777 (Hartree/Particle)
 Thermal correction to Energy=                    0.176507
 Thermal correction to Enthalpy=                  0.177451
 Thermal correction to Gibbs Free Energy=         0.128759
 Sum of electronic and zero-point Energies=           -645.601241
 Sum of electronic and thermal Energies=              -645.590511
 Sum of electronic and thermal Enthalpies=            -645.589567
 Sum of electronic and thermal Free Energies=         -645.638259

                     E (Thermal)             CV                S
                      KCal/Mol        Cal/Mol-Kelvin    Cal/Mol-Kelvin
 Total                  110.760             41.915            102.482
 Electronic               0.000              0.000              0.000
 Translational            0.889              2.981             41.601
 Rotational               0.889              2.981             30.140
 Vibrational            108.982             35.954             30.741
 Vibration     1          0.596              1.974              4.491
 Vibration     2          0.597              1.973              4.423
 Vibration     3          0.601              1.958              3.722
 Vibration     4          0.608              1.937              3.178
 Vibration     5          0.627              1.874              2.387
 Vibration     6          0.663              1.761              1.723
 Vibration     7          0.679              1.714              1.546
 Vibration     8          0.716              1.606              1.237
 Vibration     9          0.788              1.412              0.870
 Vibration    10          0.799              1.386              0.831
 Vibration    11          0.868              1.221              0.626
 Vibration    12          0.879              1.197              0.601
 Vibration    13          0.899              1.153              0.557
 Vibration    14          0.977              0.996              0.421

 Optimization completed.
    -- Stationary point found.
 Normal termination of Gaussian 09 at Tue Aug 24 20:04:52 2021.

 -----------------------------------------------------------------
 #P Geom=AllCheck Guess=TCheck SCRF=Check CCSD(T,E4T,FrzG4)/GTBas1
 -----------------------------------------------------------------

 Structure from the checkpoint file:  "/public/home/users/caep010/.cache/gau_scr/Gau-51890.chk"
 ------
 SORBUW
 ------
 Charge =  0 Multiplicity = 1

 SCF Done:  E(RHF) =  -641.820031164     A.U. after   14 cycles
 E2 =    -0.1972351295D+01 EUMP2 =    -0.64379238245931D+03
 CCSD(T)
 CCSD(T)= -0.64392151698D+03
 0874\CCSD=-643.8278244\CCSD(T)=-643.921517\RMSD=7.879e-09\PG=C02 [C2(N
 Normal termination of Gaussian 09 at Tue Aug 24 21:31:41 2021.

 ---------------------------------------------------------
 #P Geom=AllCheck Guess=TCheck SCRF=Check MP4=FrzG4/GTBas2
 ---------------------------------------------------------

 Structure from the checkpoint file:  "/public/home/users/caep010/.cache/gau_scr/Gau-51890.chk"
 ------
 SORBUW
 ------
 Charge =  0 Multiplicity = 1

 SCF Done:  E(RHF) =  -641.838779848     A.U. after   15 cycles
 E2 =    -0.1995267523D+01 EUMP2 =    -0.64383404737064D+03
 Normal termination of Gaussian 09 at Tue Aug 24 22:43:55 2021.

 ---------------------------------------------------------
 #P Geom=AllCheck Guess=TCheck SCRF=Check MP4=FrzG4/GTBas3
 ---------------------------------------------------------

 Structure from the checkpoint file:  "/public/home/users/caep010/.cache/gau_scr/Gau-51890.chk"
 ------
 SORBUW
 ------
 Charge =  0 Multiplicity = 1

 SCF Done:  E(RHF) =  -641.883244199     A.U. after   12 cycles
 E2 =    -0.2345999236D+01 EUMP2 =    -0.64422924343473D+03
 Normal termination of Gaussian 09 at Wed Aug 25 07:21:12 2021.

 -----------------------------------------------------------
 #P Geom=AllCheck Guess=TCheck SCRF=Check MP2=Full/GTLargeXP
 -----------------------------------------------------------

 Structure from the checkpoint file:  "/public/home/users/caep010/.cache/gau_scr/Gau-51890.chk"
 ------
 SORBUW
 ------
 Charge =  0 Multiplicity = 1

 SCF Done:  E(RHF) =  -642.033663396     A.U. after   14 cycles
 E2 =    -0.3089162674D+01 EUMP2 =    -0.64512282607034D+03
 Normal termination of Gaussian 09 at Wed Aug 25 07:28:31 2021.
 SCF Done:  E(RHF) =  -642.084104144     A.U. after    9 cycles
 Normal termination of Gaussian 09 at Wed Aug 25 07:33:03 2021.

                         Standard orientation:
 ---------------------------------------------------------------------
 Center     Atomic      Atomic             Coordinates (Angstroms)
 Number     Number       Type             X           Y           Z
 ---------------------------------------------------------------------
      1          7           0       -0.000000   -0.000000    3.509931
      2          6           0       -0.000000   -0.000000    2.043543
      3          6           0        0.000000    0.000000   -0.729442
      4          7           0        0.000000    0.000000   -2.133207
      5          8           0        0.018136    1.085705    4.078123
      6          8           0       -0.018136   -1.085705    4.078123
      7          6           0        0.007185    1.213071    1.363186
      8          6           0       -0.007185   -1.213071    1.363186
      9          6           0        0.000000    1.211016   -0.022474
     10          6           0       -0.000000   -1.211016   -0.022474
     11          6           0        0.554971    0.977554   -2.944531
     12          6           0       -0.554971   -0.977554   -2.944531
     13          6           0        0.356231    0.618239   -4.250026
     14          6           0       -0.356231   -0.618239   -4.250026
     15          1           0        0.002079    2.136179    1.926798
     16          1           0       -0.002079   -2.136179    1.926798
     17          1           0       -0.035173    2.148952   -0.561966
     18          1           0        0.035173   -2.148952   -0.561966
     19          1           0        1.089090    1.807791   -2.514660
     20          1           0       -1.089090   -1.807791   -2.514660
     21          1           0        0.692447    1.171957   -5.112925
     22          1           0       -0.692447   -1.171957   -5.112925
 ---------------------------------------------------------------------

 SCF Done:  E(RHF) =  -642.093609989     A.U. after    8 cycles

 The electronic state is 1-A.
 Alpha  occ. eigenvalues --  -20.59961 -20.59955 -15.85375 -15.63733 -11.32922
 Alpha  occ. eigenvalues --  -11.30834 -11.28324 -11.28319 -11.27414 -11.27410
 Alpha  occ. eigenvalues --  -11.26835 -11.26833 -11.23363 -11.23261  -1.60442
 Alpha  occ. eigenvalues --   -1.39830  -1.33592  -1.20559  -1.12422  -1.06320
 Alpha  occ. eigenvalues --   -1.05523  -1.00336  -0.95475  -0.88066  -0.85040
 Alpha  occ. eigenvalues --   -0.79244  -0.78902  -0.78617  -0.75713  -0.72960
 Alpha  occ. eigenvalues --   -0.72048  -0.67373  -0.66476  -0.64351  -0.63468
 Alpha  occ. eigenvalues --   -0.61337  -0.60357  -0.58629  -0.56947  -0.55112
 Alpha  occ. eigenvalues --   -0.53753  -0.53399  -0.49808  -0.49574  -0.45673
 Alpha  occ. eigenvalues --   -0.41496  -0.38024  -0.33450  -0.32432
 Alpha virt. eigenvalues --    0.02815   0.02909   0.03391   0.03843   0.04492
 Alpha virt. eigenvalues --    0.05096   0.05354   0.06167   0.06548   0.06568
 Alpha virt. eigenvalues --    0.07250   0.07770   0.07933   0.08000   0.08285

 Mulliken charges:
               1
     1  N    0.506741
     2  C    0.105515
     3  C    0.224883
     4  N    0.030365
     5  O   -0.438389
     6  O   -0.438389
     7  C   -0.173686
     8  C   -0.173686
     9  C   -0.233264
    10  C   -0.233264
    11  C   -0.266579
    12  C   -0.266579
    13  C   -0.228888
    14  C   -0.228888
    15  H    0.264178
    16  H    0.264178
    17  H    0.220473
    18  H    0.220473
    19  H    0.209729
    20  H    0.209729
    21  H    0.212673
    22  H    0.212673
 Sum of Mulliken charges =  -0.00000

 Dipole moment (field-independent basis, Debye):
    X=             -0.0000    Y=              0.0000    Z=             -4.6526  Tot=              4.6526
 Quadrupole moment (field-independent basis, Debye-Ang):
   XX=            -83.7346   YY=            -74.3519   ZZ=           -104.0269
   XY=              3.2344   XZ=             -0.0000   YZ=             -0.0000

 Normal termination of Gaussian 09 at Wed Aug 25 08:05:01 2021.
