 Gaussian 09, Revision E.01,
 Gaussian 09:  ES64L-G09RevE.01 30-Nov-2015

 ----------------
 #P G4 OPT=calcfc
 ----------------

 --------
 SOJGED01
 --------
 Symbolic Z-matrix:
 Charge =  0 Multiplicity = 1

 SCF Done:  E(RB3LYP) =  -603.097524983     A.U. after   15 cycles
 SCF Done:  E(RB3LYP) =  -603.171521481     A.U. after   13 cycles
 SCF Done:  E(RB3LYP) =  -603.189697526     A.U. after   14 cycles
 SCF Done:  E(RB3LYP) =  -603.190985361     A.U. after   13 cycles
 SCF Done:  E(RB3LYP) =  -603.191062017     A.U. after   12 cycles
 SCF Done:  E(RB3LYP) =  -603.191071362     A.U. after    9 cycles
 SCF Done:  E(RB3LYP) =  -603.191073777     A.U. after    8 cycles
 SCF Done:  E(RB3LYP) =  -603.191073841     A.U. after    7 cycles
 Optimization completed.
    -- Stationary point found.
 Normal termination of Gaussian 09 at Thu Aug 26 11:08:16 2021.

 ----------------------------------------------------------
 #P Geom=AllCheck Guess=TCheck SCRF=Check B3LYP/GTBas3 Freq
 ----------------------------------------------------------

 Structure from the checkpoint file:  "/public/home/users/caep010/.cache/gau_scr/Gau-178420.chk"
 --------
 SOJGED01
 --------
 Charge =  0 Multiplicity = 1

 SCF Done:  E(RB3LYP) =  -603.191073841     A.U. after    1 cycles

  Exact polarizability: 155.631   0.332  84.668   0.000  -0.000  36.611
 Approx polarizability: 256.940   2.389 170.622   0.000  -0.000  59.455

                      1                      2                      3
                      A                      A                      A
 Frequencies --     63.4192                78.0181               138.4751
 Red. masses --      6.2558                 9.7440                 8.3016
 Frc consts  --      0.0148                 0.0349                 0.0938
 IR Inten    --      0.6808                 0.3259                 1.5111

                      4                      5                      6
                      A                      A                      A
 Frequencies --    161.9591               214.8670               243.9909
 Red. masses --      7.4599                 7.7857                 6.2090
 Frc consts  --      0.1153                 0.2118                 0.2178
 IR Inten    --      0.2831                 0.3388                 5.6218

                      7                      8                      9
                      A                      A                      A
 Frequencies --    328.3372               433.0070               437.0677
 Red. masses --      7.2619                 1.4312                10.6724
 Frc consts  --      0.4613                 0.1581                 1.2012
 IR Inten    --      1.3810                57.9979                 0.5318

                     10                     11                     12
                      A                      A                      A
 Frequencies --    533.0797               556.0632               608.2352
 Red. masses --      7.0580                 2.9987                 5.5950
 Frc consts  --      1.1817                 0.5463                 1.2195
 IR Inten    --      1.3321                48.0190                 4.4482

                     13                     14                     15
                      A                      A                      A
 Frequencies --    620.8237               707.8404               771.6704
 Red. masses --      7.9387                 4.2240                 6.3464
 Frc consts  --      1.8028                 1.2469                 2.2266
 IR Inten    --      2.8664                 3.0222                18.2194

                     16                     17                     18
                      A                      A                      A
 Frequencies --    827.2499               837.3000               842.8269
 Red. masses --     11.9070                 1.3406                 5.4519
 Frc consts  --      4.8009                 0.5537                 2.2818
 IR Inten    --     37.7761                26.7245                44.0474

                     19                     20                     21
                      A                      A                      A
 Frequencies --    906.7578               919.3638               957.7295
 Red. masses --      1.3658                 1.2964                 7.2454
 Frc consts  --      0.6616                 0.6456                 3.9156
 IR Inten    --      3.4599                 9.7898               137.1968

                     22                     23                     24
                      A                      A                      A
 Frequencies --    993.1692              1002.8842              1046.9264
 Red. masses --      5.0937                 4.4463                 1.3240
 Frc consts  --      2.9602                 2.6348                 0.8550
 IR Inten    --     44.1292                47.4691                37.2861

                     25                     26                     27
                      A                      A                      A
 Frequencies --   1194.9095              1216.1174              1285.8983
 Red. masses --      3.5212                 2.3518                 4.3903
 Frc consts  --      2.9622                 2.0493                 4.2772
 IR Inten    --     47.9795                 2.3879                24.7977

                     28                     29                     30
                      A                      A                      A
 Frequencies --   1338.4280              1387.6838              1394.3371
 Red. masses --      1.4568                 1.5960                10.3385
 Frc consts  --      1.5376                 1.8108                11.8425
 IR Inten    --    145.1924                45.7776               394.5205

                     31                     32                     33
                      A                      A                      A
 Frequencies --   1432.1093              1515.2421              1603.2362
 Red. masses --      2.4098                 9.7509                 7.0171
 Frc consts  --      2.9119                13.1905                10.6268
 IR Inten    --     55.3458                40.3912                41.4409

                     34                     35                     36
                      A                      A                      A
 Frequencies --   1630.7307              1701.7164              3192.3546
 Red. masses --     12.5138                 6.0649                 1.0894
 Frc consts  --     19.6067                10.3478                 6.5412
 IR Inten    --    181.6934                 0.6182                 2.0736

                     37                     38                     39
                      A                      A                      A
 Frequencies --   3288.1843              3309.7637              3813.1160
 Red. masses --      1.0964                 1.0994                 1.0678
 Frc consts  --      6.9843                 7.0959                 9.1474
 IR Inten    --      2.1800                 2.5081               156.8740

 - Thermochemistry -
 -------------------
 Temperature   298.150 Kelvin.  Pressure   1.00000 Atm.
 Atom     1 has atomic number  8 and mass  15.99491

 Molecular mass:   156.01711 amu.
 Principal axes and moments of inertia in atomic units:
                           1         2         3
     Eigenvalues --   480.235583151.369923631.60550
           X            1.00000   0.00072   0.00000
           Y           -0.00072   1.00000  -0.00000
           Z           -0.00000   0.00000   1.00000
 This molecule is an asymmetric top.
 Rotational symmetry number  1.
 Warning -- assumption of classical behavior for rotation
           may cause significant error
 Rotational temperatures (Kelvin)      0.18036     0.02748     0.02385
 Rotational constants (GHZ):           3.75803     0.57268     0.49695
 Zero-point vibrational energy     260396.5 (Joules/Mol)
                                   62.23625 (Kcal/Mol)
 Warning -- explicit consideration of  12 degrees of freedom as
           vibrations may cause significant error
 Vibrational temperatures:     91.25   112.25   199.23   233.02   309.15
          (Kelvin)            351.05   472.40   623.00   628.84   766.98
                              800.05   875.11   893.23  1018.42  1110.26
                             1190.23  1204.69  1212.64  1304.62  1322.76
                             1377.96  1428.95  1442.92  1506.29  1719.21
                             1749.72  1850.12  1925.70  1996.56  2006.14
                             2060.48  2180.09  2306.70  2346.25  2448.39
                             4593.08  4730.96  4762.01  5486.22

 Zero-point correction=                           0.099180 (Hartree/Particle)
 Thermal correction to Energy=                    0.108289
 Thermal correction to Enthalpy=                  0.109233
 Thermal correction to Gibbs Free Energy=         0.063911
 Sum of electronic and zero-point Energies=           -603.091894
 Sum of electronic and thermal Energies=              -603.082785
 Sum of electronic and thermal Enthalpies=            -603.081840
 Sum of electronic and thermal Free Energies=         -603.127163

                     E (Thermal)             CV                S
                      KCal/Mol        Cal/Mol-Kelvin    Cal/Mol-Kelvin
 Total                   67.953             32.984             95.389
 Electronic               0.000              0.000              0.000
 Translational            0.889              2.981             41.044
 Rotational               0.889              2.981             30.087
 Vibrational             66.175             27.023             24.259
 Vibration     1          0.597              1.972              4.348
 Vibration     2          0.599              1.964              3.940
 Vibration     3          0.614              1.915              2.825
 Vibration     4          0.622              1.889              2.527
 Vibration     5          0.645              1.818              2.002
 Vibration     6          0.659              1.773              1.774
 Vibration     7          0.712              1.619              1.268
 Vibration     8          0.794              1.398              0.849
 Vibration     9          0.797              1.389              0.836
 Vibration    10          0.888              1.177              0.580
 Vibration    11          0.912              1.126              0.532
 Vibration    12          0.967              1.014              0.436

 Optimization completed.
    -- Stationary point found.
 Normal termination of Gaussian 09 at Thu Aug 26 11:09:47 2021.

 -----------------------------------------------------------------
 #P Geom=AllCheck Guess=TCheck SCRF=Check CCSD(T,E4T,FrzG4)/GTBas1
 -----------------------------------------------------------------

 Structure from the checkpoint file:  "/public/home/users/caep010/.cache/gau_scr/Gau-178420.chk"
 --------
 SOJGED01
 --------
 Charge =  0 Multiplicity = 1

 SCF Done:  E(RHF) =  -599.777164663     A.U. after   15 cycles
 E2 =    -0.1700369891D+01 EUMP2 =    -0.60147753455376D+03
 CCSD(T)
 CCSD(T)= -0.60156574557D+03
 MP4SDTQ=-601.5829497\MP4SDQ=-601.4979923\CCSD=-601.4922243\CCSD(T)=-60
 Normal termination of Gaussian 09 at Thu Aug 26 11:42:03 2021.

 ---------------------------------------------------------
 #P Geom=AllCheck Guess=TCheck SCRF=Check MP4=FrzG4/GTBas2
 ---------------------------------------------------------

 Structure from the checkpoint file:  "/public/home/users/caep010/.cache/gau_scr/Gau-178420.chk"
 --------
 SOJGED01
 --------
 Charge =  0 Multiplicity = 1

 SCF Done:  E(RHF) =  -599.795191031     A.U. after   15 cycles
 E2 =    -0.1724304920D+01 EUMP2 =    -0.60151949595103D+03
 Normal termination of Gaussian 09 at Thu Aug 26 11:54:24 2021.

 ---------------------------------------------------------
 #P Geom=AllCheck Guess=TCheck SCRF=Check MP4=FrzG4/GTBas3
 ---------------------------------------------------------

 Structure from the checkpoint file:  "/public/home/users/caep010/.cache/gau_scr/Gau-178420.chk"
 --------
 SOJGED01
 --------
 Charge =  0 Multiplicity = 1

 SCF Done:  E(RHF) =  -599.839434271     A.U. after   13 cycles
 E2 =    -0.2030826194D+01 EUMP2 =    -0.60187026046439D+03
 Normal termination of Gaussian 09 at Thu Aug 26 13:05:18 2021.

 -----------------------------------------------------------
 #P Geom=AllCheck Guess=TCheck SCRF=Check MP2=Full/GTLargeXP
 -----------------------------------------------------------

 Structure from the checkpoint file:  "/public/home/users/caep010/.cache/gau_scr/Gau-178420.chk"
 --------
 SOJGED01
 --------
 Charge =  0 Multiplicity = 1

 SCF Done:  E(RHF) =  -599.995219549     A.U. after   14 cycles
 E2 =    -0.2648896019D+01 EUMP2 =    -0.60264411556845D+03
 Normal termination of Gaussian 09 at Thu Aug 26 13:15:54 2021.
 SCF Done:  E(RHF) =  -600.043927015     A.U. after   10 cycles
 Normal termination of Gaussian 09 at Thu Aug 26 13:19:40 2021.

                         Standard orientation:
 ---------------------------------------------------------------------
 Center     Atomic      Atomic             Coordinates (Angstroms)
 Number     Number       Type             X           Y           Z
 ---------------------------------------------------------------------
      1          8           0        0.278667   -0.765401    0.000006
      2          6           0        1.201239    0.209754    0.000003
      3          6           0       -0.939257   -0.142523    0.000011
      4          6           0       -0.761972    1.224887    0.000013
      5          6           0        0.636144    1.452736    0.000008
      6          7           0        2.576628   -0.184163   -0.000005
      7          1           0       -1.550751    1.955593    0.000024
      8          6           0       -2.066475   -1.041339    0.000015
      9          8           0        2.830824   -1.381185   -0.000010
     10          7           0       -3.319556   -0.763106   -0.000000
     11          8           0       -3.562577    0.603491   -0.000022
     12          1           0       -4.525324    0.647031   -0.000043
     13          8           0        3.393996    0.733223   -0.000007
     14          1           0       -1.837648   -2.102496    0.000020
     15          1           0        1.168864    2.388636    0.000009
 ---------------------------------------------------------------------

 SCF Done:  E(RHF) =  -600.053476539     A.U. after    7 cycles

 The electronic state is 1-A.
 Alpha  occ. eigenvalues --  -20.67424 -20.62888 -20.61314 -20.60703 -15.86903
 Alpha  occ. eigenvalues --  -15.65997 -11.37165 -11.34753 -11.31090 -11.29194
 Alpha  occ. eigenvalues --  -11.27737  -1.61815  -1.51828  -1.46215  -1.40947
 Alpha  occ. eigenvalues --   -1.19405  -1.14608  -1.11191  -0.99139  -0.89288
 Alpha  occ. eigenvalues --   -0.83216  -0.81257  -0.79487  -0.75629  -0.74553
 Alpha  occ. eigenvalues --   -0.73308  -0.69092  -0.68055  -0.65820  -0.62864
 Alpha  occ. eigenvalues --   -0.62595  -0.61867  -0.59484  -0.51323  -0.50790
 Alpha  occ. eigenvalues --   -0.47791  -0.46552  -0.45892  -0.44136  -0.35001
 Alpha virt. eigenvalues --    0.01417   0.03070   0.03761   0.04634   0.04787
 Alpha virt. eigenvalues --    0.05640   0.06182   0.07185   0.07422   0.07610
 Alpha virt. eigenvalues --    0.08353   0.08880   0.09306   0.09723   0.10687

 Mulliken charges:
               1
     1  O   -0.346297
     2  C    0.273176
     3  C    0.488798
     4  C   -0.211855
     5  C   -0.141071
     6  N    0.483022
     7  H    0.267749
     8  C   -0.230466
     9  O   -0.405745
    10  N   -0.193552
    11  O   -0.485776
    12  H    0.415568
    13  O   -0.440032
    14  H    0.252813
    15  H    0.273668
 Sum of Mulliken charges =  -0.00000

 Dipole moment (field-independent basis, Debye):
    X=             -4.6297    Y=              2.3718    Z=              0.0000  Tot=              5.2019
 Quadrupole moment (field-independent basis, Debye-Ang):
   XX=            -70.4419   YY=            -59.2694   ZZ=            -62.4954
   XY=             -0.8715   XZ=              0.0002   YZ=             -0.0000

 Normal termination of Gaussian 09 at Thu Aug 26 13:42:52 2021.
