 Gaussian 09, Revision E.01,
 Gaussian 09:  ES64L-G09RevE.01 30-Nov-2015

 ----------------
 #P G4 OPT=calcfc
 ----------------

 ------
 SAWNAH
 ------
 Symbolic Z-matrix:
 Charge =  0 Multiplicity = 1

 SCF Done:  E(RB3LYP) =  -678.376759596     A.U. after   16 cycles
 SCF Done:  E(RB3LYP) =  -678.431245804     A.U. after   13 cycles
 SCF Done:  E(RB3LYP) =  -678.441969024     A.U. after   16 cycles
 SCF Done:  E(RB3LYP) =  -678.442638738     A.U. after   14 cycles
 SCF Done:  E(RB3LYP) =  -678.442664757     A.U. after   12 cycles
 SCF Done:  E(RB3LYP) =  -678.442665909     A.U. after   10 cycles
 SCF Done:  E(RB3LYP) =  -678.442666229     A.U. after    8 cycles
 Optimization completed.
    -- Stationary point found.
 Normal termination of Gaussian 09 at Wed Aug 25 05:58:34 2021.

 ----------------------------------------------------------
 #P Geom=AllCheck Guess=TCheck SCRF=Check B3LYP/GTBas3 Freq
 ----------------------------------------------------------

 Structure from the checkpoint file:  "/public/home/users/caep010/.cache/gau_scr/Gau-207657.chk"
 ------
 SAWNAH
 ------
 Charge =  0 Multiplicity = 1

 SCF Done:  E(RB3LYP) =  -678.442666229     A.U. after    1 cycles

  Exact polarizability: 127.287   0.216  82.571   0.001   0.000  43.675
 Approx polarizability: 170.227   9.468 180.949   0.002  -0.000  69.292

                      1                      2                      3
                      A                      A                      A
 Frequencies --     43.7843                62.5907                99.0424
 Red. masses --      6.3028                 9.9770                 1.6188
 Frc consts  --      0.0071                 0.0230                 0.0094
 IR Inten    --      1.6948                 0.0182                 0.4207

                      4                      5                      6
                      A                      A                      A
 Frequencies --    104.8696               115.3407               171.9944
 Red. masses --      6.4576                 2.0242                 5.0785
 Frc consts  --      0.0418                 0.0159                 0.0885
 IR Inten    --      0.8420                 2.0250                11.7324

                      7                      8                      9
                      A                      A                      A
 Frequencies --    215.2751               299.4697               300.4701
 Red. masses --      7.6333                10.2154                10.5906
 Frc consts  --      0.2084                 0.5398                 0.5633
 IR Inten    --      4.4108                 4.8235                 0.0775

                     10                     11                     12
                      A                      A                      A
 Frequencies --    322.4043               480.4882               496.4851
 Red. masses --      4.4632                 9.8550                13.1213
 Frc consts  --      0.2733                 1.3405                 1.9056
 IR Inten    --     21.0849                 0.0040                 0.5783

                     13                     14                     15
                      A                      A                      A
 Frequencies --    557.7111               614.0114               645.7586
 Red. masses --      6.5304                 7.5776                 8.5098
 Frc consts  --      1.1968                 1.6832                 2.0908
 IR Inten    --      0.7131                 6.3741                 3.7202

                     16                     17                     18
                      A                      A                      A
 Frequencies --    782.6967               804.3949               816.6839
 Red. masses --      5.4891                 6.8951                 5.9424
 Frc consts  --      1.9813                 2.6286                 2.3352
 IR Inten    --     16.1260                 7.8247                 9.7759

                     19                     20                     21
                      A                      A                      A
 Frequencies --    836.3600               896.2821               964.3474
 Red. masses --     10.7873                 1.5939                 9.7163
 Frc consts  --      4.4458                 0.7544                 5.3237
 IR Inten    --     84.1338                12.5240                22.5446

                     22                     23                     24
                      A                      A                      A
 Frequencies --    974.6435              1008.1183              1031.6059
 Red. masses --      8.5396                 3.9652                 7.5331
 Frc consts  --      4.7795                 2.3743                 4.7234
 IR Inten    --      2.6099                24.2594                52.1076

                     25                     26                     27
                      A                      A                      A
 Frequencies --   1094.5835              1177.8137              1205.2156
 Red. masses --      1.9268                 1.2792                 1.6627
 Frc consts  --      1.3601                 1.0456                 1.4229
 IR Inten    --      4.1223                 1.1970                29.6570

                     28                     29                     30
                      A                      A                      A
 Frequencies --   1244.2363              1314.3038              1392.1331
 Red. masses --      6.1216                 5.4253                14.4827
 Frc consts  --      5.5837                 5.5216                16.5371
 IR Inten    --    282.1663               265.3382               229.0719

                     31                     32                     33
                      A                      A                      A
 Frequencies --   1454.7036              1462.8979              1481.9371
 Red. masses --      4.1772                 2.0634                 1.0464
 Frc consts  --      5.2081                 2.6017                 1.3540
 IR Inten    --      2.1548                 0.2568                 7.9361

                     34                     35                     36
                      A                      A                      A
 Frequencies --   1489.8777              1501.4225              1615.3624
 Red. masses --      1.2725                 2.0695                 9.3192
 Frc consts  --      1.6642                 2.7487                14.3275
 IR Inten    --     27.9076                18.7132                49.9700

                     37                     38                     39
                      A                      A                      A
 Frequencies --   1654.8520              1811.7290              3057.4575
 Red. masses --     13.6545                11.9175                 1.0298
 Frc consts  --     22.0315                23.0474                 5.6721
 IR Inten    --    181.8367               200.2950                24.1125

                     40                     41                     42
                      A                      A                      A
 Frequencies --   3135.3017              3172.9150              3315.0816
 Red. masses --      1.1061                 1.1062                 1.1009
 Frc consts  --      6.4064                 6.5612                 7.1285
 IR Inten    --     13.7841                 9.5703                14.5158

 - Thermochemistry -
 -------------------
 Temperature   298.150 Kelvin.  Pressure   1.00000 Atm.
 Atom     1 has atomic number  8 and mass  15.99491

 Molecular mass:   172.01202 amu.
 Principal axes and moments of inertia in atomic units:
                           1         2         3
     Eigenvalues --   554.994944039.918804583.51506
           X            0.99999  -0.00400  -0.00000
           Y            0.00400   0.99999   0.00000
           Z            0.00000  -0.00000   1.00000
 This molecule is an asymmetric top.
 Rotational symmetry number  1.
 Warning -- assumption of classical behavior for rotation
           may cause significant error
 Rotational temperatures (Kelvin)      0.15606     0.02144     0.01890
 Rotational constants (GHZ):           3.25182     0.44673     0.39375
 Zero-point vibrational energy     270515.5 (Joules/Mol)
                                   64.65474 (Kcal/Mol)
 Warning -- explicit consideration of  14 degrees of freedom as
           vibrations may cause significant error
 Vibrational temperatures:     63.00    90.05   142.50   150.88   165.95
          (Kelvin)            247.46   309.73   430.87   432.31   463.87
                              691.31   714.33   802.42   883.42   929.10
                             1126.12  1157.34  1175.02  1203.33  1289.55
                             1387.48  1402.29  1450.46  1484.25  1574.86
                             1694.61  1734.03  1790.18  1890.99  2002.97
                             2092.99  2104.78  2132.17  2143.60  2160.21
                             2324.14  2380.96  2606.67  4398.99  4510.99
                             4565.11  4769.66

 Zero-point correction=                           0.103034 (Hartree/Particle)
 Thermal correction to Energy=                    0.113642
 Thermal correction to Enthalpy=                  0.114586
 Thermal correction to Gibbs Free Energy=         0.064984
 Sum of electronic and zero-point Energies=           -678.339632
 Sum of electronic and thermal Energies=              -678.329025
 Sum of electronic and thermal Enthalpies=            -678.328080
 Sum of electronic and thermal Free Energies=         -678.377682

                     E (Thermal)             CV                S
                      KCal/Mol        Cal/Mol-Kelvin    Cal/Mol-Kelvin
 Total                   71.311             36.268            104.396
 Electronic               0.000              0.000              0.000
 Translational            0.889              2.981             41.335
 Rotational               0.889              2.981             30.709
 Vibrational             69.534             30.306             32.352
 Vibration     1          0.595              1.980              5.080
 Vibration     2          0.597              1.972              4.374
 Vibration     3          0.604              1.950              3.473
 Vibration     4          0.605              1.945              3.362
 Vibration     5          0.608              1.937              3.177
 Vibration     6          0.626              1.877              2.414
 Vibration     7          0.645              1.818              1.998
 Vibration     8          0.692              1.675              1.420
 Vibration     9          0.693              1.673              1.414
 Vibration    10          0.707              1.631              1.298
 Vibration    11          0.837              1.293              0.709
 Vibration    12          0.852              1.258              0.667
 Vibration    13          0.913              1.123              0.528
 Vibration    14          0.973              1.002              0.426

 Optimization completed.
    -- Stationary point found.
 Normal termination of Gaussian 09 at Wed Aug 25 06:00:27 2021.

 -----------------------------------------------------------------
 #P Geom=AllCheck Guess=TCheck SCRF=Check CCSD(T,E4T,FrzG4)/GTBas1
 -----------------------------------------------------------------

 Structure from the checkpoint file:  "/public/home/users/caep010/.cache/gau_scr/Gau-207657.chk"
 ------
 SAWNAH
 ------
 Charge =  0 Multiplicity = 1

 SCF Done:  E(RHF) =  -674.671102615     A.U. after   15 cycles
 E2 =    -0.1878386433D+01 EUMP2 =    -0.67654948904888D+03
 CCSD(T)
 CCSD(T)= -0.67663921650D+03
 MP4SDQ=-676.5680488\CCSD=-676.5594669\CCSD(T)=-676.6392165\RMSD=9.827e
 Normal termination of Gaussian 09 at Wed Aug 25 06:50:03 2021.

 ---------------------------------------------------------
 #P Geom=AllCheck Guess=TCheck SCRF=Check MP4=FrzG4/GTBas2
 ---------------------------------------------------------

 Structure from the checkpoint file:  "/public/home/users/caep010/.cache/gau_scr/Gau-207657.chk"
 ------
 SAWNAH
 ------
 Charge =  0 Multiplicity = 1

 SCF Done:  E(RHF) =  -674.688886070     A.U. after   14 cycles
 E2 =    -0.1903120206D+01 EUMP2 =    -0.67659200627584D+03
 Normal termination of Gaussian 09 at Wed Aug 25 07:08:06 2021.

 ---------------------------------------------------------
 #P Geom=AllCheck Guess=TCheck SCRF=Check MP4=FrzG4/GTBas3
 ---------------------------------------------------------

 Structure from the checkpoint file:  "/public/home/users/caep010/.cache/gau_scr/Gau-207657.chk"
 ------
 SAWNAH
 ------
 Charge =  0 Multiplicity = 1

 SCF Done:  E(RHF) =  -674.738318598     A.U. after   13 cycles
 E2 =    -0.2247771833D+01 EUMP2 =    -0.67698609043126D+03
 Normal termination of Gaussian 09 at Wed Aug 25 09:01:30 2021.

 -----------------------------------------------------------
 #P Geom=AllCheck Guess=TCheck SCRF=Check MP2=Full/GTLargeXP
 -----------------------------------------------------------

 Structure from the checkpoint file:  "/public/home/users/caep010/.cache/gau_scr/Gau-207657.chk"
 ------
 SAWNAH
 ------
 Charge =  0 Multiplicity = 1

 SCF Done:  E(RHF) =  -674.913997675     A.U. after   15 cycles
 E2 =    -0.2925964926D+01 EUMP2 =    -0.67783996260113D+03
 Normal termination of Gaussian 09 at Wed Aug 25 09:15:48 2021.
 SCF Done:  E(RHF) =  -674.967680784     A.U. after    9 cycles
 Normal termination of Gaussian 09 at Wed Aug 25 09:19:49 2021.

                         Standard orientation:
 ---------------------------------------------------------------------
 Center     Atomic      Atomic             Coordinates (Angstroms)
 Number     Number       Type             X           Y           Z
 ---------------------------------------------------------------------
      1          8           0       -1.125566   -1.316705    0.000085
      2          7           0        0.252062   -1.312534    0.000085
      3          6           0        0.609800   -0.042737    0.000084
      4          6           0       -0.512479    0.828065    0.000105
      5          1           0       -0.532265    1.902762    0.000160
      6          6           0       -1.545842   -0.046885    0.000091
      7          7           0       -2.975235    0.179579   -0.000040
      8          8           0       -3.700094   -0.800562   -0.000086
      9          8           0       -3.320516    1.353574   -0.000154
     10          6           0        2.033129    0.400161    0.000039
     11          8           0        2.881913   -0.626142   -0.000017
     12          6           0        4.275292   -0.271919   -0.000194
     13          8           0        2.337041    1.567182    0.000110
     14          1           0        4.518508    0.313796   -0.889776
     15          1           0        4.815395   -1.217589   -0.000820
     16          1           0        4.518955    0.312838    0.889878
 ---------------------------------------------------------------------

 SCF Done:  E(RHF) =  -674.978427456     A.U. after    7 cycles

 The electronic state is 1-A.
 Alpha  occ. eigenvalues --  -20.70686 -20.63558 -20.63482 -20.63015 -20.58377
 Alpha  occ. eigenvalues --  -15.89034 -15.69277 -11.42654 -11.40269 -11.33872
 Alpha  occ. eigenvalues --  -11.30911 -11.30610  -1.64255  -1.56205  -1.49956
 Alpha  occ. eigenvalues --   -1.43485  -1.40025  -1.23057  -1.16434  -1.03208
 Alpha  occ. eigenvalues --   -1.01840  -0.91822  -0.86401  -0.83035  -0.79983
 Alpha  occ. eigenvalues --   -0.76691  -0.75670  -0.72366  -0.71616  -0.71289
 Alpha  occ. eigenvalues --   -0.69567  -0.69051  -0.64164  -0.61648  -0.58814
 Alpha  occ. eigenvalues --   -0.56142  -0.54994  -0.53082  -0.52155  -0.49923
 Alpha  occ. eigenvalues --   -0.49636  -0.48318  -0.47109  -0.42541
 Alpha virt. eigenvalues --    0.00562   0.02821   0.03901   0.04370   0.04675
 Alpha virt. eigenvalues --    0.05670   0.05758   0.05986   0.06924   0.07239
 Alpha virt. eigenvalues --    0.07540   0.07935   0.08699   0.09688   0.09769

 Mulliken charges:
               1
     1  O   -0.223095
     2  N   -0.155663
     3  C    0.327252
     4  C   -0.255507
     5  H    0.303434
     6  C    0.361617
     7  N    0.492997
     8  O   -0.367074
     9  O   -0.415454
    10  C    0.531138
    11  O   -0.258341
    12  C   -0.385778
    13  O   -0.556487
    14  H    0.198330
    15  H    0.204332
    16  H    0.198299
 Sum of Mulliken charges =  -0.00000

 Dipole moment (field-independent basis, Debye):
    X=              4.4028    Y=              0.4096    Z=             -0.0000  Tot=              4.4218
 Quadrupole moment (field-independent basis, Debye-Ang):
   XX=            -69.0589   YY=            -76.3211   ZZ=            -64.6248
   XY=             -3.7228   XZ=             -0.0027   YZ=              0.0003

 Normal termination of Gaussian 09 at Wed Aug 25 09:47:12 2021.
