 Gaussian 09, Revision E.01,
 Gaussian 09:  ES64L-G09RevE.01 30-Nov-2015

 ----------------
 #P G4 OPT=calcfc
 ----------------

 ------
 SORBEG
 ------
 Symbolic Z-matrix:
 Charge =  0 Multiplicity = 1

 SCF Done:  E(RB3LYP) =  -661.695238966     A.U. after   16 cycles
 SCF Done:  E(RB3LYP) =  -661.772592688     A.U. after   13 cycles
 SCF Done:  E(RB3LYP) =  -661.800115839     A.U. after   16 cycles
 SCF Done:  E(RB3LYP) =  -661.800601854     A.U. after   14 cycles
 SCF Done:  E(RB3LYP) =  -661.800642247     A.U. after   12 cycles
 SCF Done:  E(RB3LYP) =  -661.800655566     A.U. after   11 cycles
 SCF Done:  E(RB3LYP) =  -661.800658249     A.U. after   11 cycles
 SCF Done:  E(RB3LYP) =  -661.800658548     A.U. after   11 cycles
 SCF Done:  E(RB3LYP) =  -661.800659397     A.U. after   10 cycles
 SCF Done:  E(RB3LYP) =  -661.800659559     A.U. after    8 cycles
 SCF Done:  E(RB3LYP) =  -661.800659594     A.U. after    8 cycles
 Optimization completed.
    -- Stationary point found.
 Normal termination of Gaussian 09 at Wed Aug 25 09:44:03 2021.

 ----------------------------------------------------------
 #P Geom=AllCheck Guess=TCheck SCRF=Check B3LYP/GTBas3 Freq
 ----------------------------------------------------------

 Structure from the checkpoint file:  "/public/home/users/caep010/.cache/gau_scr/Gau-91754.chk"
 ------
 SORBEG
 ------
 Charge =  0 Multiplicity = 1

 SCF Done:  E(RB3LYP) =  -661.800659594     A.U. after    1 cycles

  Exact polarizability: 221.485  -0.286 121.603   0.076   0.181  50.230
 Approx polarizability: 326.911  -1.284 245.869   0.010  -0.487  85.002

                      1                      2                      3
                      A                      A                      A
 Frequencies --     29.4256                63.3140                69.6393
 Red. masses --      4.5051                 7.0394                 7.2060
 Frc consts  --      0.0023                 0.0166                 0.0206
 IR Inten    --      2.2821                 0.8533                 0.2288

                      4                      5                      6
                      A                      A                      A
 Frequencies --    137.0483               171.1056               264.2361
 Red. masses --      6.3987                 6.5183                 6.4891
 Frc consts  --      0.0708                 0.1124                 0.2669
 IR Inten    --      1.4475                 4.0260                 2.6997

                      7                      8                      9
                      A                      A                      A
 Frequencies --    281.2734               320.7871               421.6806
 Red. masses --     10.2590                 6.1181                 3.1695
 Frc consts  --      0.4782                 0.3709                 0.3321
 IR Inten    --      0.2836                 0.0938                 0.1830

                     10                     11                     12
                      A                      A                      A
 Frequencies --    457.5438               518.8801               520.4548
 Red. masses --      5.6878                 3.3355                 6.4590
 Frc consts  --      0.7015                 0.5291                 1.0308
 IR Inten    --      2.3460                 4.6255                14.4891

                     13                     14                     15
                      A                      A                      A
 Frequencies --    542.9881               622.6310               639.5270
 Red. masses --      6.0113                 3.0381                 7.0535
 Frc consts  --      1.0442                 0.6939                 1.6997
 IR Inten    --      0.7938                 4.2750                 0.2399

                     16                     17                     18
                      A                      A                      A
 Frequencies --    672.6830               709.3458               734.0301
 Red. masses --      6.3697                 3.5252                 7.3560
 Frc consts  --      1.6982                 1.0451                 2.3352
 IR Inten    --      3.3551                 7.7808                 0.0694

                     19                     20                     21
                      A                      A                      A
 Frequencies --    761.9358               785.0558               834.3872
 Red. masses --      1.3079                 4.7873                 1.2971
 Frc consts  --      0.4474                 1.7384                 0.5320
 IR Inten    --     47.8274                16.4737                 6.8532

                     22                     23                     24
                      A                      A                      A
 Frequencies --    845.5272               867.7004               892.5304
 Red. masses --      1.2794                10.2445                 1.7077
 Frc consts  --      0.5389                 4.5444                 0.8015
 IR Inten    --      0.0442                66.5112                24.8036

                     25                     26                     27
                      A                      A                      A
 Frequencies --    903.2599               928.7532               950.6658
 Red. masses --      1.3252                 6.2098                 4.0747
 Frc consts  --      0.6370                 3.1559                 2.1697
 IR Inten    --      6.8481                 3.9711                58.3493

                     28                     29                     30
                      A                      A                      A
 Frequencies --    969.1333              1005.2834              1022.4056
 Red. masses --      1.3341                 1.3469                 3.0296
 Frc consts  --      0.7383                 0.8020                 1.8659
 IR Inten    --      1.6839                 0.0508                 0.1360

                     31                     32                     33
                      A                      A                      A
 Frequencies --   1050.0566              1067.2789              1126.2491
 Red. masses --      2.1719                 1.5156                 1.3130
 Frc consts  --      1.4110                 1.0172                 0.9813
 IR Inten    --     13.2942                61.4871                 6.5776

                     34                     35                     36
                      A                      A                      A
 Frequencies --   1129.6718              1145.9312              1199.6903
 Red. masses --      2.7927                 1.9866                 1.3509
 Frc consts  --      2.0998                 1.5370                 1.1455
 IR Inten    --     86.2751                12.8283                 0.9717

                     37                     38                     39
                      A                      A                      A
 Frequencies --   1230.1120              1278.6123              1323.5957
 Red. masses --      1.6906                 2.5770                 1.4512
 Frc consts  --      1.5072                 2.4822                 1.4979
 IR Inten    --     25.5298                20.8855                13.0809

                     40                     41                     42
                      A                      A                      A
 Frequencies --   1367.0634              1378.8965              1389.4345
 Red. masses --      9.2358                 3.6284                 8.6851
 Frc consts  --     10.1695                 4.0647                 9.8788
 IR Inten    --     25.0239               233.0358               404.2981

                     43                     44                     45
                      A                      A                      A
 Frequencies --   1433.3558              1440.9358              1468.8710
 Red. masses --      4.5368                 3.5596                 3.6787
 Frc consts  --      5.4917                 4.3545                 4.6764
 IR Inten    --     59.3914                10.9404                 3.2087

                     46                     47                     48
                      A                      A                      A
 Frequencies --   1534.7909              1572.7627              1609.1950
 Red. masses --      2.9637                 4.6742                 9.9889
 Frc consts  --      4.1133                 6.8121                15.2400
 IR Inten    --    111.0087                62.1305               100.7049

                     49                     50                     51
                      A                      A                      A
 Frequencies --   1638.4564              1657.5360              3213.8984
 Red. masses --      6.1181                 9.7994                 1.0887
 Frc consts  --      9.6769                15.8626                 6.6253
 IR Inten    --    165.6857               114.0311                 4.7840

                     52                     53                     54
                      A                      A                      A
 Frequencies --   3233.1816              3239.4690              3245.4745
 Red. masses --      1.0883                 1.0928                 1.0941
 Frc consts  --      6.7028                 6.7570                 6.7901
 IR Inten    --      1.1603                 2.1520                 1.2019

                     55                     56                     57
                      A                      A                      A
 Frequencies --   3246.8697              3272.4996              3293.1098
 Red. masses --      1.0934                 1.0936                 1.1046
 Frc consts  --      6.7917                 6.9004                 7.0577
 IR Inten    --      3.7322                 0.2791                 0.4390

 - Thermochemistry -
 -------------------
 Temperature   298.150 Kelvin.  Pressure   1.00000 Atm.
 Atom     1 has atomic number  8 and mass  15.99491

 Molecular mass:   189.05383 amu.
 Principal axes and moments of inertia in atomic units:
                           1         2         3
     Eigenvalues --   643.622465609.398866244.95870
           X            1.00000   0.00279   0.00048
           Y           -0.00279   1.00000   0.00026
           Z           -0.00048  -0.00026   1.00000
 This molecule is an asymmetric top.
 Rotational symmetry number  1.
 Warning -- assumption of classical behavior for rotation
           may cause significant error
 Rotational temperatures (Kelvin)      0.13457     0.01544     0.01387
 Rotational constants (GHZ):           2.80404     0.32174     0.28899
 Zero-point vibrational energy     405116.7 (Joules/Mol)
                                   96.82522 (Kcal/Mol)
 Warning -- explicit consideration of  13 degrees of freedom as
           vibrations may cause significant error
 Vibrational temperatures:     42.34    91.09   100.20   197.18   246.18
          (Kelvin)            380.18   404.69   461.54   606.70   658.30
                              746.55   748.82   781.24   895.83   920.14
                              967.84  1020.59  1056.10  1096.25  1129.52
                             1200.50  1216.52  1248.43  1284.15  1299.59
                             1336.27  1367.79  1394.36  1446.38  1471.01
                             1510.80  1535.57  1620.42  1625.34  1648.74
                             1726.08  1769.85  1839.64  1904.36  1966.90
                             1983.92  1999.08  2062.28  2073.18  2113.38
                             2208.22  2262.85  2315.27  2357.37  2384.82
                             4624.08  4651.82  4660.87  4669.51  4671.52
                             4708.39  4738.04

 Zero-point correction=                           0.154301 (Hartree/Particle)
 Thermal correction to Energy=                    0.164893
 Thermal correction to Enthalpy=                  0.165837
 Thermal correction to Gibbs Free Energy=         0.116079
 Sum of electronic and zero-point Energies=           -661.646359
 Sum of electronic and thermal Energies=              -661.635766
 Sum of electronic and thermal Enthalpies=            -661.634822
 Sum of electronic and thermal Free Energies=         -661.684581

                     E (Thermal)             CV                S
                      KCal/Mol        Cal/Mol-Kelvin    Cal/Mol-Kelvin
 Total                  103.472             40.594            104.726
 Electronic               0.000              0.000              0.000
 Translational            0.889              2.981             41.616
 Rotational               0.889              2.981             31.489
 Vibrational            101.695             34.632             31.620
 Vibration     1          0.593              1.984              5.868
 Vibration     2          0.597              1.972              4.351
 Vibration     3          0.598              1.969              4.164
 Vibration     4          0.614              1.916              2.845
 Vibration     5          0.626              1.878              2.423
 Vibration     6          0.671              1.739              1.634
 Vibration     7          0.681              1.708              1.526
 Vibration     8          0.706              1.634              1.306
 Vibration     9          0.784              1.423              0.886
 Vibration    10          0.816              1.344              0.773
 Vibration    11          0.874              1.208              0.613
 Vibration    12          0.875              1.205              0.609
 Vibration    13          0.898              1.155              0.559

 Optimization completed.
    -- Stationary point found.
 Normal termination of Gaussian 09 at Wed Aug 25 09:47:30 2021.

 -----------------------------------------------------------------
 #P Geom=AllCheck Guess=TCheck SCRF=Check CCSD(T,E4T,FrzG4)/GTBas1
 -----------------------------------------------------------------

 Structure from the checkpoint file:  "/public/home/users/caep010/.cache/gau_scr/Gau-91754.chk"
 ------
 SORBEG
 ------
 Charge =  0 Multiplicity = 1

 SCF Done:  E(RHF) =  -657.807005066     A.U. after   15 cycles
 E2 =    -0.2008951778D+01 EUMP2 =    -0.65981595684345D+03
 CCSD(T)
 CCSD(T)= -0.65993936454D+03
 MP4SDQ=-659.847382\CCSD=-659.8436814\CCSD(T)=-659.9393645\RMSD=4.740e-
 Normal termination of Gaussian 09 at Wed Aug 25 11:50:25 2021.

 ---------------------------------------------------------
 #P Geom=AllCheck Guess=TCheck SCRF=Check MP4=FrzG4/GTBas2
 ---------------------------------------------------------

 Structure from the checkpoint file:  "/public/home/users/caep010/.cache/gau_scr/Gau-91754.chk"
 ------
 SORBEG
 ------
 Charge =  0 Multiplicity = 1

 SCF Done:  E(RHF) =  -657.825392253     A.U. after   19 cycles
 E2 =    -0.2032379053D+01 EUMP2 =    -0.65985777130604D+03
 Normal termination of Gaussian 09 at Wed Aug 25 12:50:13 2021.

 ---------------------------------------------------------
 #P Geom=AllCheck Guess=TCheck SCRF=Check MP4=FrzG4/GTBas3
 ---------------------------------------------------------

 Structure from the checkpoint file:  "/public/home/users/caep010/.cache/gau_scr/Gau-91754.chk"
 ------
 SORBEG
 ------
 Charge =  0 Multiplicity = 1

 SCF Done:  E(RHF) =  -657.870506707     A.U. after   12 cycles
 E2 =    -0.2382367209D+01 EUMP2 =    -0.66025287391570D+03
 Normal termination of Gaussian 09 at Wed Aug 25 21:20:34 2021.

 -----------------------------------------------------------
 #P Geom=AllCheck Guess=TCheck SCRF=Check MP2=Full/GTLargeXP
 -----------------------------------------------------------

 Structure from the checkpoint file:  "/public/home/users/caep010/.cache/gau_scr/Gau-91754.chk"
 ------
 SORBEG
 ------
 Charge =  0 Multiplicity = 1

 SCF Done:  E(RHF) =  -658.025233428     A.U. after   14 cycles
 E2 =    -0.3130370173D+01 EUMP2 =    -0.66115560360092D+03
 Normal termination of Gaussian 09 at Wed Aug 25 21:33:04 2021.
 SCF Done:  E(RHF) =  -658.076897996     A.U. after   10 cycles
 Normal termination of Gaussian 09 at Wed Aug 25 21:41:27 2021.

                         Standard orientation:
 ---------------------------------------------------------------------
 Center     Atomic      Atomic             Coordinates (Angstroms)
 Number     Number       Type             X           Y           Z
 ---------------------------------------------------------------------
      1          8           0       -4.049431   -1.111871    0.060907
      2          7           0       -3.496337   -0.020074    0.005429
      3          8           0       -4.079365    1.056928   -0.045025
      4          6           0       -2.029564   -0.000249   -0.000500
      5          6           0       -1.330300   -1.201680    0.055859
      6          6           0       -1.368738    1.220776   -0.065897
      7          6           0        0.017293    1.240461   -0.072851
      8          6           0        0.736141    0.040376   -0.006483
      9          6           0        0.054699   -1.181924    0.053964
     10          7           0        2.144209    0.044584   -0.002277
     11          7           0        2.825260   -1.124324   -0.136442
     12          6           0        4.102335   -0.783959   -0.085558
     13          6           0        4.272389    0.610332    0.085852
     14          6           0        2.995422    1.107713    0.135684
     15          1           0       -1.879381   -2.132181    0.104333
     16          1           0        0.627819   -2.097018    0.099037
     17          1           0        0.529759    2.190691   -0.145869
     18          1           0       -1.945601    2.133931   -0.117564
     19          1           0        4.860610   -1.548120   -0.174726
     20          1           0        5.191422    1.167260    0.165873
     21          1           0        2.635748    2.112594    0.274464
 ---------------------------------------------------------------------

 SCF Done:  E(RHF) =  -658.086582430     A.U. after    8 cycles

 The electronic state is 1-A.
 Alpha  occ. eigenvalues --  -20.59762 -20.59719 -15.85152 -15.67160 -15.60754
 Alpha  occ. eigenvalues --  -11.32910 -11.30573 -11.30194 -11.28145 -11.27980
 Alpha  occ. eigenvalues --  -11.27857 -11.26987 -11.26115 -11.24634  -1.60229
 Alpha  occ. eigenvalues --   -1.40775  -1.39619  -1.21364  -1.15592  -1.09352
 Alpha  occ. eigenvalues --   -1.06526  -1.05556  -0.95918  -0.88493  -0.86031
 Alpha  occ. eigenvalues --   -0.82100  -0.80074  -0.78446  -0.76372  -0.72736
 Alpha  occ. eigenvalues --   -0.71828  -0.67433  -0.66595  -0.65210  -0.64697
 Alpha  occ. eigenvalues --   -0.62995  -0.61375  -0.59080  -0.58484  -0.54143
 Alpha  occ. eigenvalues --   -0.53776  -0.49648  -0.49363  -0.48036  -0.45466
 Alpha  occ. eigenvalues --   -0.43202  -0.38050  -0.37135  -0.33658
 Alpha virt. eigenvalues --    0.02515   0.02868   0.03327   0.03999   0.04788
 Alpha virt. eigenvalues --    0.05043   0.05255   0.06557   0.06688   0.07016
 Alpha virt. eigenvalues --    0.07253   0.07381   0.08030   0.08123   0.08481

 Mulliken charges:
               1
     1  O   -0.438923
     2  N    0.515098
     3  O   -0.440814
     4  C    0.102059
     5  C   -0.195765
     6  C   -0.182706
     7  C   -0.254292
     8  C    0.282984
     9  C   -0.233407
    10  N    0.115155
    11  N   -0.429922
    12  C   -0.038441
    13  C   -0.280165
    14  C   -0.188766
    15  H    0.266517
    16  H    0.256489
    17  H    0.208589
    18  H    0.263795
    19  H    0.224697
    20  H    0.217644
    21  H    0.230175
 Sum of Mulliken charges =  -0.00000

 Dipole moment (field-independent basis, Debye):
    X=              5.9218    Y=              1.9339    Z=              0.2440  Tot=              6.2343
 Quadrupole moment (field-independent basis, Debye-Ang):
   XX=            -94.6485   YY=            -74.6108   ZZ=            -83.8521
   XY=              3.9294   XZ=              0.7510   YZ=              0.0378

 Normal termination of Gaussian 09 at Wed Aug 25 22:38:43 2021.
