 Gaussian 09, Revision E.01,
 Gaussian 09:  ES64L-G09RevE.01 30-Nov-2015

 ----------------
 #P G4 OPT=calcfc
 ----------------

 ------
 SOXNEA
 ------
 Symbolic Z-matrix:
 Charge =  0 Multiplicity = 1

 SCF Done:  E(RB3LYP) =  -697.574845823     A.U. after   18 cycles
 SCF Done:  E(RB3LYP) =  -697.652195402     A.U. after   15 cycles
 SCF Done:  E(RB3LYP) =  -697.670358938     A.U. after   18 cycles
 SCF Done:  E(RB3LYP) =  -697.677115995     A.U. after   17 cycles
 SCF Done:  E(RB3LYP) =  -697.671931447     A.U. after   17 cycles
 SCF Done:  E(RB3LYP) =  -697.679865162     A.U. after   13 cycles
 SCF Done:  E(RB3LYP) =  -697.680393995     A.U. after   13 cycles
 SCF Done:  E(RB3LYP) =  -697.680492977     A.U. after   13 cycles
 SCF Done:  E(RB3LYP) =  -697.680591438     A.U. after   14 cycles
 SCF Done:  E(RB3LYP) =  -697.680735302     A.U. after   14 cycles
 SCF Done:  E(RB3LYP) =  -697.680783377     A.U. after   14 cycles
 SCF Done:  E(RB3LYP) =  -697.680785861     A.U. after   12 cycles
 SCF Done:  E(RB3LYP) =  -697.680785887     A.U. after    8 cycles
 Optimization completed.
    -- Stationary point found.
 Normal termination of Gaussian 09 at Thu Aug 26 05:46:12 2021.

 ----------------------------------------------------------
 #P Geom=AllCheck Guess=TCheck SCRF=Check B3LYP/GTBas3 Freq
 ----------------------------------------------------------

 Structure from the checkpoint file:  "/public/home/users/caep010/.cache/gau_scr/Gau-132225.chk"
 ------
 SOXNEA
 ------
 Charge =  0 Multiplicity = 1

 SCF Done:  E(RB3LYP) =  -697.680785887     A.U. after    1 cycles

  Exact polarizability: 197.558  10.114 121.635   0.277  -1.024  48.986
 Approx polarizability: 314.843  34.202 238.506  -0.636  -4.070  81.977

                      1                      2                      3
                      A                      A                      A
 Frequencies --     33.8266                48.1270                73.0801
 Red. masses --      9.2434                12.9181                 6.6927
 Frc consts  --      0.0062                 0.0176                 0.0211
 IR Inten    --      2.1780                 1.6147                 1.5115

                      4                      5                      6
                      A                      A                      A
 Frequencies --     96.9699               163.6185               171.2734
 Red. masses --      7.8394                 6.2360                11.6174
 Frc consts  --      0.0434                 0.0984                 0.2008
 IR Inten    --      0.7552                 1.8736                 1.0298

                      7                      8                      9
                      A                      A                      A
 Frequencies --    189.7519               247.8243               310.3385
 Red. masses --      4.9572                 7.3276                 8.9569
 Frc consts  --      0.1052                 0.2652                 0.5083
 IR Inten    --      1.0503                 3.0541                 2.9207

                     10                     11                     12
                      A                      A                      A
 Frequencies --    396.6627               431.2875               442.3521
 Red. masses --      8.6222                 3.6135                 8.0480
 Frc consts  --      0.7993                 0.3960                 0.9278
 IR Inten    --      1.8044                 0.4492                 1.3869

                     13                     14                     15
                      A                      A                      A
 Frequencies --    461.4234               483.1748               506.3278
 Red. masses --      6.0362                 1.3970                 5.9732
 Frc consts  --      0.7572                 0.1922                 0.9022
 IR Inten    --      1.9646                34.6499                 0.9251

                     16                     17                     18
                      A                      A                      A
 Frequencies --    546.9802               571.9765               662.5608
 Red. masses --      6.3114                 6.0629                 7.1447
 Frc consts  --      1.1126                 1.1687                 1.8479
 IR Inten    --      2.6909                 0.0622                 1.4920

                     19                     20                     21
                      A                      A                      A
 Frequencies --    683.1023               730.8240               734.2349
 Red. masses --      3.9721                 8.8346                 2.3109
 Frc consts  --      1.0920                 2.7801                 0.7340
 IR Inten    --      0.9567                67.9553                63.4976

                     22                     23                     24
                      A                      A                      A
 Frequencies --    787.7850               840.3909               859.4323
 Red. masses --      7.4878                 1.7075                10.4991
 Frc consts  --      2.7379                 0.7105                 4.5690
 IR Inten    --      0.9754                 4.7545                 6.9044

                     25                     26                     27
                      A                      A                      A
 Frequencies --    916.2537               950.8411               983.5886
 Red. masses --      5.2765                 1.4193                 1.3915
 Frc consts  --      2.6099                 0.7560                 0.7932
 IR Inten    --     10.6023                 0.2304                 3.0821

                     28                     29                     30
                      A                      A                      A
 Frequencies --    995.6273              1014.2790              1054.7858
 Red. masses --      1.4289                 6.2208                 2.9503
 Frc consts  --      0.8345                 3.7706                 1.9340
 IR Inten    --      3.9590                 2.4452                37.8217

                     31                     32                     33
                      A                      A                      A
 Frequencies --   1096.9396              1113.4651              1185.3020
 Red. masses --      1.6442                 2.0352                 1.4665
 Frc consts  --      1.1656                 1.4867                 1.2139
 IR Inten    --    104.0213                24.7581                13.0445

                     34                     35                     36
                      A                      A                      A
 Frequencies --   1200.2472              1231.4372              1299.3978
 Red. masses --      1.7900                 2.7389                 1.4248
 Frc consts  --      1.5193                 2.4471                 1.4174
 IR Inten    --     18.9816               121.1494                 2.4193

                     37                     38                     39
                      A                      A                      A
 Frequencies --   1358.5017              1393.4173              1400.1127
 Red. masses --      8.2997                 4.8698                 4.1472
 Frc consts  --      9.0247                 5.5709                 4.7900
 IR Inten    --      4.5049               632.0538                82.1047

                     40                     41                     42
                      A                      A                      A
 Frequencies --   1461.1407              1506.4630              1613.8711
 Red. masses --      3.0322                 2.4402                 6.4109
 Frc consts  --      3.8141                 3.2628                 9.8380
 IR Inten    --     67.5640                 4.1748                43.2357

                     43                     44                     45
                      A                      A                      A
 Frequencies --   1622.2631              1666.6576              1722.6149
 Red. masses --      8.4606                 9.4819                12.0658
 Frc consts  --     13.1187                15.5181                21.0952
 IR Inten    --     54.4622               109.7680               144.4256

                     46                     47                     48
                      A                      A                      A
 Frequencies --   2243.1181              3189.6271              3205.0045
 Red. masses --     13.4478                 1.0862                 1.0935
 Frc consts  --     39.8662                 6.5110                 6.6178
 IR Inten    --    605.9316                 5.6795                 8.8603

                     49                     50                     51
                      A                      A                      A
 Frequencies --   3239.7140              3245.6442              3260.9741
 Red. masses --      1.0926                 1.0903                 1.0883
 Frc consts  --      6.7566                 6.7668                 6.8186
 IR Inten    --      3.3045                11.5240                 3.3273

 - Thermochemistry -
 -------------------
 Temperature   298.150 Kelvin.  Pressure   1.00000 Atm.
 Atom     1 has atomic number  8 and mass  15.99491

 Molecular mass:   191.03309 amu.
 Principal axes and moments of inertia in atomic units:
                           1         2         3
     Eigenvalues --   996.411835380.974706351.08781
           X            1.00000   0.00116   0.00098
           Y           -0.00116   1.00000  -0.00010
           Z           -0.00098   0.00010   1.00000
 This molecule is an asymmetric top.
 Rotational symmetry number  1.
 Warning -- assumption of classical behavior for rotation
           may cause significant error
 Rotational temperatures (Kelvin)      0.08693     0.01610     0.01364
 Rotational constants (GHZ):           1.81124     0.33539     0.28416
 Zero-point vibrational energy     332828.7 (Joules/Mol)
                                   79.54797 (Kcal/Mol)
 Warning -- explicit consideration of  17 degrees of freedom as
           vibrations may cause significant error
 Vibrational temperatures:     48.67    69.24   105.15   139.52   235.41
          (Kelvin)            246.42   273.01   356.56   446.51   570.71
                              620.53   636.45   663.88   695.18   728.49
                              786.98   822.95   953.28   982.83  1051.49
                             1056.40  1133.45  1209.13  1236.53  1318.28
                             1368.05  1415.16  1432.48  1459.32  1517.60
                             1578.25  1602.03  1705.38  1726.89  1771.76
                             1869.54  1954.58  2004.81  2014.45  2102.25
                             2167.46  2322.00  2334.07  2397.95  2478.46
                             3227.34  4589.16  4611.28  4661.22  4669.75
                             4691.81

 Zero-point correction=                           0.126768 (Hartree/Particle)
 Thermal correction to Energy=                    0.138531
 Thermal correction to Enthalpy=                  0.139475
 Thermal correction to Gibbs Free Energy=         0.086999
 Sum of electronic and zero-point Energies=           -697.554018
 Sum of electronic and thermal Energies=              -697.542255
 Sum of electronic and thermal Enthalpies=            -697.541311
 Sum of electronic and thermal Free Energies=         -697.593787

                     E (Thermal)             CV                S
                      KCal/Mol        Cal/Mol-Kelvin    Cal/Mol-Kelvin
 Total                   86.929             42.701            110.446
 Electronic               0.000              0.000              0.000
 Translational            0.889              2.981             41.647
 Rotational               0.889              2.981             31.899
 Vibrational             85.152             36.740             36.900
 Vibration     1          0.594              1.983              5.591
 Vibration     2          0.595              1.978              4.893
 Vibration     3          0.599              1.967              4.069
 Vibration     4          0.603              1.951              3.514
 Vibration     5          0.623              1.887              2.508
 Vibration     6          0.626              1.878              2.421
 Vibration     7          0.633              1.854              2.230
 Vibration     8          0.661              1.766              1.746
 Vibration     9          0.699              1.654              1.361
 Vibration    10          0.763              1.477              0.975
 Vibration    11          0.792              1.402              0.854
 Vibration    12          0.802              1.378              0.819
 Vibration    13          0.819              1.336              0.762
 Vibration    14          0.839              1.287              0.702
 Vibration    15          0.862              1.236              0.642
 Vibration    16          0.902              1.146              0.550
 Vibration    17          0.928              1.092              0.500

 Optimization completed.
    -- Stationary point found.
 Normal termination of Gaussian 09 at Thu Aug 26 05:49:16 2021.

 -----------------------------------------------------------------
 #P Geom=AllCheck Guess=TCheck SCRF=Check CCSD(T,E4T,FrzG4)/GTBas1
 -----------------------------------------------------------------

 Structure from the checkpoint file:  "/public/home/users/caep010/.cache/gau_scr/Gau-132225.chk"
 ------
 SOXNEA
 ------
 Charge =  0 Multiplicity = 1

 SCF Done:  E(RHF) =  -693.603292123     A.U. after   17 cycles
 E2 =    -0.2052773380D+01 EUMP2 =    -0.69565606550331D+03
 CCSD(T)
 CCSD(T)= -0.69577045948D+03
 SD=-695.6735094\CCSD(T)=-695.7704595\RMSD=3.886e-09\PG=C01 [X(C8H5N3O3
 Normal termination of Gaussian 09 at Thu Aug 26 07:41:06 2021.

 ---------------------------------------------------------
 #P Geom=AllCheck Guess=TCheck SCRF=Check MP4=FrzG4/GTBas2
 ---------------------------------------------------------

 Structure from the checkpoint file:  "/public/home/users/caep010/.cache/gau_scr/Gau-132225.chk"
 ------
 SOXNEA
 ------
 Charge =  0 Multiplicity = 1

 SCF Done:  E(RHF) =  -693.622951353     A.U. after   19 cycles
 E2 =    -0.2078170127D+01 EUMP2 =    -0.69570112147988D+03
 Normal termination of Gaussian 09 at Thu Aug 26 08:28:46 2021.

 ---------------------------------------------------------
 #P Geom=AllCheck Guess=TCheck SCRF=Check MP4=FrzG4/GTBas3
 ---------------------------------------------------------

 Structure from the checkpoint file:  "/public/home/users/caep010/.cache/gau_scr/Gau-132225.chk"
 ------
 SOXNEA
 ------
 Charge =  0 Multiplicity = 1

 SCF Done:  E(RHF) =  -693.668884601     A.U. after   13 cycles
 E2 =    -0.2430421904D+01 EUMP2 =    -0.69609930650442D+03
 Normal termination of Gaussian 09 at Thu Aug 26 13:23:14 2021.

 -----------------------------------------------------------
 #P Geom=AllCheck Guess=TCheck SCRF=Check MP2=Full/GTLargeXP
 -----------------------------------------------------------

 Structure from the checkpoint file:  "/public/home/users/caep010/.cache/gau_scr/Gau-132225.chk"
 ------
 SOXNEA
 ------
 Charge =  0 Multiplicity = 1

 SCF Done:  E(RHF) =  -693.838665181     A.U. after   16 cycles
 E2 =    -0.3189740982D+01 EUMP2 =    -0.69702840616250D+03
 Normal termination of Gaussian 09 at Thu Aug 26 13:35:44 2021.
 SCF Done:  E(RHF) =  -693.893582306     A.U. after   10 cycles
 Normal termination of Gaussian 09 at Thu Aug 26 13:43:07 2021.

                         Standard orientation:
 ---------------------------------------------------------------------
 Center     Atomic      Atomic             Coordinates (Angstroms)
 Number     Number       Type             X           Y           Z
 ---------------------------------------------------------------------
      1          8           0       -1.904467   -1.525356    0.338819
      2          6           0       -1.808412   -0.333824    0.094681
      3          6           0       -0.466022    0.343214    0.062497
      4          6           0        0.656645   -0.488316    0.018544
      5          1           0        0.532804   -1.562348    0.007751
      6          6           0       -0.286694    1.729967    0.097336
      7          1           0       -1.142319    2.392145    0.164983
      8          6           0        1.917003    0.084741   -0.008053
      9          7           0        3.102103   -0.796152   -0.066437
     10          8           0        4.201939   -0.258520   -0.080260
     11          6           0        2.109738    1.462484    0.021113
     12          1           0        3.115817    1.858477    0.001615
     13          6           0        0.991251    2.284837    0.079833
     14          1           0        1.114997    3.361238    0.114602
     15          8           0        2.909218   -2.002510   -0.097705
     16          6           0       -2.973893    0.495856   -0.197369
     17          1           0       -2.979514    1.524954   -0.517185
     18          7           0       -4.143296   -0.091023   -0.147074
     19          7           0       -5.120664   -0.649559   -0.082216
 ---------------------------------------------------------------------

 SCF Done:  E(RHF) =  -693.903852169     A.U. after    8 cycles

 The electronic state is 1-A.
 Alpha  occ. eigenvalues --  -20.60529 -20.60413 -20.54931 -15.85789 -15.77749
 Alpha  occ. eigenvalues --  -15.71458 -11.36395 -11.31918 -11.29601 -11.29109
 Alpha  occ. eigenvalues --  -11.28906 -11.28533 -11.28189 -11.27578  -1.61034
 Alpha  occ. eigenvalues --   -1.50905  -1.40466  -1.39932  -1.21303  -1.16827
 Alpha  occ. eigenvalues --   -1.10790  -1.07316  -0.97331  -0.93539  -0.85259
 Alpha  occ. eigenvalues --   -0.84042  -0.79224  -0.76290  -0.73396  -0.72514
 Alpha  occ. eigenvalues --   -0.72072  -0.71487  -0.70439  -0.69736  -0.66295
 Alpha  occ. eigenvalues --   -0.64920  -0.64130  -0.60161  -0.57936  -0.57049
 Alpha  occ. eigenvalues --   -0.55181  -0.53258  -0.50127  -0.50064  -0.46006
 Alpha  occ. eigenvalues --   -0.44872  -0.39310  -0.37952  -0.36189
 Alpha virt. eigenvalues --    0.01950   0.02588   0.03115   0.03970   0.04203
 Alpha virt. eigenvalues --    0.04775   0.05346   0.05543   0.06458   0.06877
 Alpha virt. eigenvalues --    0.07195   0.07349   0.07540   0.08484   0.08492

 Mulliken charges:
               1
     1  O   -0.610982
     2  C    0.412828
     3  C    0.294604
     4  C   -0.242829
     5  H    0.297410
     6  C   -0.210822
     7  H    0.209693
     8  C    0.099443
     9  N    0.536582
    10  O   -0.438014
    11  C   -0.187093
    12  H    0.266417
    13  C   -0.241176
    14  H    0.224784
    15  O   -0.429176
    16  C   -0.350311
    17  H    0.229341
    18  N    0.368720
    19  N   -0.229417
 Sum of Mulliken charges =  -0.00000

 Dipole moment (field-independent basis, Debye):
    X=             -3.6070    Y=              6.4816    Z=             -0.6304  Tot=              7.4444
 Quadrupole moment (field-independent basis, Debye-Ang):
   XX=            -90.7777   YY=            -79.1360   ZZ=            -80.5212
   XY=             -0.1058   XZ=              2.8738   YZ=              0.5767

 Normal termination of Gaussian 09 at Thu Aug 26 14:33:18 2021.
