 Gaussian 09, Revision E.01,
 Gaussian 09:  ES64L-G09RevE.01 30-Nov-2015

 ----------------
 #P G4 OPT=calcfc
 ----------------

 ------
 SAMROP
 ------
 Symbolic Z-matrix:
 Charge =  0 Multiplicity = 1

 SCF Done:  E(RB3LYP) =  -719.490938944     A.U. after   15 cycles
 SCF Done:  E(RB3LYP) =  -719.644140676     A.U. after   12 cycles
 SCF Done:  E(RB3LYP) =  -719.775242860     A.U. after   12 cycles
 SCF Done:  E(RB3LYP) =  -719.778404429     A.U. after   12 cycles
 SCF Done:  E(RB3LYP) =  -719.762395037     A.U. after   14 cycles
 SCF Done:  E(RB3LYP) =  -719.781652853     A.U. after   11 cycles
 SCF Done:  E(RB3LYP) =  -719.783601802     A.U. after   12 cycles
 SCF Done:  E(RB3LYP) =  -719.784087217     A.U. after   11 cycles
 SCF Done:  E(RB3LYP) =  -719.784182065     A.U. after   10 cycles
 SCF Done:  E(RB3LYP) =  -719.784218624     A.U. after    9 cycles
 SCF Done:  E(RB3LYP) =  -719.784296644     A.U. after    8 cycles
 SCF Done:  E(RB3LYP) =  -719.784296848     A.U. after    7 cycles
 SCF Done:  E(RB3LYP) =  -719.784296895     A.U. after    6 cycles
 Optimization completed.
    -- Stationary point found.
 Normal termination of Gaussian 09 at Thu Aug 26 16:45:47 2021.

 ----------------------------------------------------------
 #P Geom=AllCheck Guess=TCheck SCRF=Check B3LYP/GTBas3 Freq
 ----------------------------------------------------------

 Structure from the checkpoint file:  "/public/home/users/caep010/.cache/gau_scr/Gau-211472.chk"
 ------
 SAMROP
 ------
 Charge =  0 Multiplicity = 1

 SCF Done:  E(RB3LYP) =  -719.784296895     A.U. after    1 cycles

  Exact polarizability: 142.433  -0.566 132.331   8.535  -0.830  83.970
 Approx polarizability: 187.494   2.417 213.973  18.227  -0.894 130.361

                      1                      2                      3
                      A                      A                      A
 Frequencies --     34.0751                42.8555                48.5171
 Red. masses --      4.1136                 3.1529                 5.2082
 Frc consts  --      0.0028                 0.0034                 0.0072
 IR Inten    --      4.2954                 2.1027                 3.0596

                      4                      5                      6
                      A                      A                      A
 Frequencies --     57.1888                66.4813               101.9075
 Red. masses --      5.5793                 3.3320                 4.6143
 Frc consts  --      0.0108                 0.0087                 0.0282
 IR Inten    --      0.0821                 1.1788                 1.5263

                      7                      8                      9
                      A                      A                      A
 Frequencies --    161.3420               165.1358               206.8157
 Red. masses --      1.0476                 4.7188                 4.9005
 Frc consts  --      0.0161                 0.0758                 0.1235
 IR Inten    --      3.6338                 1.2273                 2.3698

                     10                     11                     12
                      A                      A                      A
 Frequencies --    213.6352               236.5489               269.5622
 Red. masses --      3.1247                 3.2542                 3.0824
 Frc consts  --      0.0840                 0.1073                 0.1320
 IR Inten    --      2.2753                 1.4967                18.6633

                     13                     14                     15
                      A                      A                      A
 Frequencies --    301.0112               349.5910               393.4249
 Red. masses --      3.5243                 1.1503                 2.4121
 Frc consts  --      0.1881                 0.0828                 0.2200
 IR Inten    --     10.6229                51.7207                 2.3960

                     16                     17                     18
                      A                      A                      A
 Frequencies --    442.9905               445.1986               571.6417
 Red. masses --      3.3692                 4.8944                 4.8691
 Frc consts  --      0.3896                 0.5716                 0.9375
 IR Inten    --      4.9587                 2.3565                 3.6979

                     19                     20                     21
                      A                      A                      A
 Frequencies --    655.1882               679.0742               692.5568
 Red. masses --      1.0955                 4.1543                 3.9266
 Frc consts  --      0.2771                 1.1287                 1.1096
 IR Inten    --     30.0925                 4.5337                 7.9466

                     22                     23                     24
                      A                      A                      A
 Frequencies --    716.8456               742.5251               789.8645
 Red. masses --      2.7674                 7.7911                 9.9106
 Frc consts  --      0.8379                 2.5309                 3.6430
 IR Inten    --      3.0240                23.6034                 9.4369

                     25                     26                     27
                      A                      A                      A
 Frequencies --    802.4490               813.0522               851.8827
 Red. masses --     13.4862                 1.8124                 2.4446
 Frc consts  --      5.1165                 0.7059                 1.0452
 IR Inten    --     17.7996                 2.7744                12.7785

                     28                     29                     30
                      A                      A                      A
 Frequencies --    881.7343               926.7612               933.6155
 Red. masses --      4.2044                 2.2613                 2.2579
 Frc consts  --      1.9259                 1.1443                 1.1595
 IR Inten    --     19.3777                 9.5280                 1.2033

                     31                     32                     33
                      A                      A                      A
 Frequencies --    954.0756               981.8279              1007.7930
 Red. masses --      3.6444                 2.1818                 2.2657
 Frc consts  --      1.9545                 1.2392                 1.3558
 IR Inten    --     24.9684                 7.6184                 3.7696

                     34                     35                     36
                      A                      A                      A
 Frequencies --   1055.0858              1061.6741              1091.2428
 Red. masses --      3.3490                 2.1919                 2.5547
 Frc consts  --      2.1966                 1.4556                 1.7924
 IR Inten    --     45.9540                23.2255                30.4263

                     37                     38                     39
                      A                      A                      A
 Frequencies --   1126.3916              1153.0742              1158.0171
 Red. masses --      3.0583                 1.2818                 1.9649
 Frc consts  --      2.2862                 1.0041                 1.5524
 IR Inten    --     48.7924                 0.2736                 1.1732

                     40                     41                     42
                      A                      A                      A
 Frequencies --   1174.7684              1198.1587              1223.9311
 Red. masses --      2.9019                 1.9694                 1.2245
 Frc consts  --      2.3596                 1.6658                 1.0807
 IR Inten    --    145.8166                49.1161                 5.2124

                     43                     44                     45
                      A                      A                      A
 Frequencies --   1239.3146              1249.1619              1274.7092
 Red. masses --      1.2788                 1.4065                 3.3730
 Frc consts  --      1.1572                 1.2931                 3.2292
 IR Inten    --     12.1727                 0.8571               286.6989

                     46                     47                     48
                      A                      A                      A
 Frequencies --   1278.3824              1309.0177              1311.8770
 Red. masses --      1.4570                 1.2920                 1.3300
 Frc consts  --      1.4029                 1.3044                 1.3486
 IR Inten    --     42.7216                 0.1741                 0.7699

                     49                     50                     51
                      A                      A                      A
 Frequencies --   1348.3822              1373.7645              1389.8522
 Red. masses --      1.2288                 1.4486                 1.4078
 Frc consts  --      1.3163                 1.6107                 1.6022
 IR Inten    --      9.2745                27.0351                74.2179

                     52                     53                     54
                      A                      A                      A
 Frequencies --   1394.5228              1404.1862              1417.2205
 Red. masses --      2.4342                 1.3621                 1.5158
 Frc consts  --      2.7890                 1.5824                 1.7938
 IR Inten    --     58.2946                12.3112                34.5819

                     55                     56                     57
                      A                      A                      A
 Frequencies --   1469.3393              1480.5935              1490.5804
 Red. masses --      1.1407                 1.1963                 1.0434
 Frc consts  --      1.4510                 1.5451                 1.3658
 IR Inten    --     61.9702                 3.8671                 8.3132

                     58                     59                     60
                      A                      A                      A
 Frequencies --   1497.9091              1508.4386              1519.5297
 Red. masses --      1.0855                 1.0865                 1.0607
 Frc consts  --      1.4350                 1.4566                 1.4430
 IR Inten    --      2.1554                 5.3560                33.6090

                     61                     62                     63
                      A                      A                      A
 Frequencies --   1526.0821              1555.4641              1637.8429
 Red. masses --      1.1062                 4.2915                 5.1039
 Frc consts  --      1.5179                 6.1176                 8.0667
 IR Inten    --      4.5765               586.9836               436.4661

                     64                     65                     66
                      A                      A                      A
 Frequencies --   1651.6100              2969.1094              2984.5012
 Red. masses --      2.9823                 1.0710                 1.0720
 Frc consts  --      4.7931                 5.5628                 5.6256
 IR Inten    --    300.4368                52.8321                87.1287

                     67                     68                     69
                      A                      A                      A
 Frequencies --   3002.4145              3050.1707              3055.8004
 Red. masses --      1.0397                 1.1033                 1.0628
 Frc consts  --      5.5222                 6.0475                 5.8472
 IR Inten    --     46.6891                26.8284                16.3734

                     70                     71                     72
                      A                      A                      A
 Frequencies --   3061.9791              3078.7098              3090.6279
 Red. masses --      1.0641                 1.0914                 1.0909
 Frc consts  --      5.8781                 6.0950                 6.1395
 IR Inten    --     25.4778                40.0634                28.4095

                     73                     74                     75
                      A                      A                      A
 Frequencies --   3100.7543              3114.0879              3123.5112
 Red. masses --      1.0898                 1.1000                 1.1023
 Frc consts  --      6.1733                 6.2847                 6.3365
 IR Inten    --      1.0949                30.6735                 6.9607

                     76                     77                     78
                      A                      A                      A
 Frequencies --   3139.1331              3437.6803              3685.8172
 Red. masses --      1.0955                 1.0791                 1.0767
 Frc consts  --      6.3602                 7.5136                 8.6180
 IR Inten    --      8.4730               248.3608                40.8815

 - Thermochemistry -
 -------------------
 Temperature   298.150 Kelvin.  Pressure   1.00000 Atm.
 Atom     1 has atomic number  8 and mass  15.99491

 Molecular mass:   202.10659 amu.
 Principal axes and moments of inertia in atomic units:
                           1         2         3
     Eigenvalues --  1569.928345101.125206287.99321
           X            0.99930  -0.03752   0.00007
           Y            0.03752   0.99928  -0.00508
           Z            0.00013   0.00508   0.99999
 This molecule is an asymmetric top.
 Rotational symmetry number  1.
 Warning -- assumption of classical behavior for rotation
           may cause significant error
 Rotational temperatures (Kelvin)      0.05517     0.01698     0.01377
 Rotational constants (GHZ):           1.14957     0.35379     0.28701
 Zero-point vibrational energy     610105.0 (Joules/Mol)
                                  145.81859 (Kcal/Mol)
 Warning -- explicit consideration of  18 degrees of freedom as
           vibrations may cause significant error
 Vibrational temperatures:     49.03    61.66    69.81    82.28    95.65
          (Kelvin)            146.62   232.13   237.59   297.56   307.37
                              340.34   387.84   433.09   502.98   566.05
                              637.36   640.54   822.46   942.67   977.04
                              996.43  1031.38  1068.33  1136.44  1154.54
                             1169.80  1225.67  1268.62  1333.40  1343.26
                             1372.70  1412.63  1449.99  1518.03  1527.51
                             1570.05  1620.62  1659.01  1666.13  1690.23
                             1723.88  1760.96  1783.10  1797.26  1834.02
                             1839.30  1883.38  1887.50  1940.02  1976.54
                             1999.68  2006.40  2020.31  2039.06  2114.05
                             2130.24  2144.61  2155.15  2170.30  2186.26
                             2195.69  2237.96  2356.49  2376.30  4271.88
                             4294.03  4319.80  4388.51  4396.61  4405.50
                             4429.57  4446.72  4461.29  4480.47  4494.03
                             4516.51  4946.05  5303.06

 Zero-point correction=                           0.232377 (Hartree/Particle)
 Thermal correction to Energy=                    0.246731
 Thermal correction to Enthalpy=                  0.247675
 Thermal correction to Gibbs Free Energy=         0.188724
 Sum of electronic and zero-point Energies=           -719.551920
 Sum of electronic and thermal Energies=              -719.537566
 Sum of electronic and thermal Enthalpies=            -719.536622
 Sum of electronic and thermal Free Energies=         -719.595573

                     E (Thermal)             CV                S
                      KCal/Mol        Cal/Mol-Kelvin    Cal/Mol-Kelvin
 Total                  154.826             51.216            124.073
 Electronic               0.000              0.000              0.000
 Translational            0.889              2.981             41.815
 Rotational               0.889              2.981             32.288
 Vibrational            153.048             45.254             49.970
 Vibration     1          0.594              1.983              5.577
 Vibration     2          0.595              1.980              5.123
 Vibration     3          0.595              1.978              4.877
 Vibration     4          0.596              1.975              4.552
 Vibration     5          0.598              1.970              4.255
 Vibration     6          0.604              1.948              3.418
 Vibration     7          0.622              1.890              2.534
 Vibration     8          0.624              1.885              2.490
 Vibration     9          0.641              1.830              2.072
 Vibration    10          0.644              1.820              2.012
 Vibration    11          0.655              1.785              1.829
 Vibration    12          0.674              1.729              1.599
 Vibration    13          0.693              1.672              1.411
 Vibration    14          0.727              1.576              1.168
 Vibration    15          0.761              1.484              0.987
 Vibration    16          0.803              1.376              0.817
 Vibration    17          0.805              1.371              0.810
 Vibration    18          0.928              1.093              0.501

 Optimization completed.
    -- Stationary point found.
 Normal termination of Gaussian 09 at Thu Aug 26 16:50:32 2021.

 -----------------------------------------------------------------
 #P Geom=AllCheck Guess=TCheck SCRF=Check CCSD(T,E4T,FrzG4)/GTBas1
 -----------------------------------------------------------------

 Structure from the checkpoint file:  "/public/home/users/caep010/.cache/gau_scr/Gau-211472.chk"
 ------
 SAMROP
 ------
 Charge =  0 Multiplicity = 1

 SCF Done:  E(RHF) =  -715.450161582     A.U. after   14 cycles
 E2 =    -0.2106498240D+01 EUMP2 =    -0.71755665982263D+03
 CCSD(T)
 CCSD(T)= -0.71770946528D+03
 29908\CCSD(T)=-717.7094653\RMSD=6.632e-09\PG=C01 [X(C7H14N4O3)]\\@
 Normal termination of Gaussian 09 at Thu Aug 26 19:43:43 2021.

 ---------------------------------------------------------
 #P Geom=AllCheck Guess=TCheck SCRF=Check MP4=FrzG4/GTBas2
 ---------------------------------------------------------

 Structure from the checkpoint file:  "/public/home/users/caep010/.cache/gau_scr/Gau-211472.chk"
 ------
 SAMROP
 ------
 Charge =  0 Multiplicity = 1

 SCF Done:  E(RHF) =  -715.469115448     A.U. after   13 cycles
 E2 =    -0.2137392728D+01 EUMP2 =    -0.71760650817542D+03
 Normal termination of Gaussian 09 at Thu Aug 26 20:59:33 2021.

 ---------------------------------------------------------
 #P Geom=AllCheck Guess=TCheck SCRF=Check MP4=FrzG4/GTBas3
 ---------------------------------------------------------

 Structure from the checkpoint file:  "/public/home/users/caep010/.cache/gau_scr/Gau-211472.chk"
 ------
 SAMROP
 ------
 Charge =  0 Multiplicity = 1

 SCF Done:  E(RHF) =  -715.530835133     A.U. after   12 cycles
 E2 =    -0.2560206151D+01 EUMP2 =    -0.71809104128372D+03
 Normal termination of Gaussian 09 at Fri Aug 27 12:12:34 2021.

 -----------------------------------------------------------
 #P Geom=AllCheck Guess=TCheck SCRF=Check MP2=Full/GTLargeXP
 -----------------------------------------------------------

 Structure from the checkpoint file:  "/public/home/users/caep010/.cache/gau_scr/Gau-211472.chk"
 ------
 SAMROP
 ------
 Charge =  0 Multiplicity = 1

 SCF Done:  E(RHF) =  -715.708416146     A.U. after   13 cycles
 E2 =    -0.3341360237D+01 EUMP2 =    -0.71904977638246D+03
 Normal termination of Gaussian 09 at Fri Aug 27 12:35:36 2021.
 SCF Done:  E(RHF) =  -715.765072441     A.U. after    9 cycles
 Normal termination of Gaussian 09 at Fri Aug 27 12:45:03 2021.

                         Standard orientation:
 ---------------------------------------------------------------------
 Center     Atomic      Atomic             Coordinates (Angstroms)
 Number     Number       Type             X           Y           Z
 ---------------------------------------------------------------------
      1          8           0        3.715646    0.800837   -0.307148
      2          6           0        4.189484   -0.500109    0.025026
      3          1           0        4.857071   -0.401782    0.884684
      4          1           0        4.768427   -0.917134   -0.813384
      5          6           0        2.497998    0.598107   -1.006107
      6          6           0        2.932164   -1.363577    0.301868
      7          1           0        2.824173   -1.591023    1.366581
      8          1           0        2.977936   -2.317376   -0.227712
      9          6           0        1.757018   -0.483688   -0.204085
     10          1           0        2.687819    0.257582   -2.037441
     11          1           0        1.972699    1.556689   -1.057471
     12          6           0        0.981884    0.110136    0.984405
     13          1           0        1.660555    0.716471    1.592888
     14          7           0       -0.132798    0.972625    0.603940
     15          1           0        0.018706    1.965052    0.602692
     16          1           0        0.590984   -0.698600    1.604782
     17          6           0       -1.352927    0.517721    0.228112
     18          7           0       -1.469782   -0.815197    0.209152
     19          7           0       -2.298920    1.420558   -0.075647
     20          1           0       -3.177439    0.979370   -0.341948
     21          6           0       -2.134635    2.854868   -0.010984
     22          1           0       -3.078263    3.322527   -0.294621
     23          1           0       -1.882376    3.196403    1.001651
     24          1           0       -1.363003    3.214926   -0.704944
     25          7           0       -2.667270   -1.381795   -0.130694
     26          8           0       -3.669142   -0.701462   -0.455080
     27          8           0       -2.691428   -2.600268   -0.101636
     28          1           0        1.057579   -1.050050   -0.821504
 ---------------------------------------------------------------------

 SCF Done:  E(RHF) =  -715.776642725     A.U. after    7 cycles

 The electronic state is 1-A.
 Alpha  occ. eigenvalues --  -20.57315 -20.56794 -20.55972 -15.85464 -15.61221
 Alpha  occ. eigenvalues --  -15.60549 -15.58151 -11.39904 -11.29774 -11.28176
 Alpha  occ. eigenvalues --  -11.28008 -11.27951 -11.23915 -11.23335  -1.58821
 Alpha  occ. eigenvalues --   -1.38756  -1.37261  -1.34887  -1.23773  -1.22338
 Alpha  occ. eigenvalues --   -1.08372  -1.01222  -0.99870  -0.94764  -0.92492
 Alpha  occ. eigenvalues --   -0.83606  -0.81949  -0.79081  -0.76519  -0.74291
 Alpha  occ. eigenvalues --   -0.71458  -0.70136  -0.69049  -0.68819  -0.68230
 Alpha  occ. eigenvalues --   -0.65665  -0.64251  -0.62511  -0.59660  -0.59240
 Alpha  occ. eigenvalues --   -0.57799  -0.55577  -0.54633  -0.51476  -0.50583
 Alpha  occ. eigenvalues --   -0.49273  -0.48691  -0.47863  -0.47527  -0.44586
 Alpha  occ. eigenvalues --   -0.44507  -0.42825  -0.40842  -0.39099
 Alpha virt. eigenvalues --    0.01721   0.03122   0.03389   0.04018   0.04420
 Alpha virt. eigenvalues --    0.04953   0.05122   0.06339   0.06749   0.06874
 Alpha virt. eigenvalues --    0.07158   0.07281   0.08528   0.08709   0.09226

 Mulliken charges:
               1
     1  O   -0.403246
     2  C   -0.158765
     3  H    0.166269
     4  H    0.142094
     5  C   -0.164644
     6  C   -0.362894
     7  H    0.166233
     8  H    0.182221
     9  C    0.005184
    10  H    0.150116
    11  H    0.145055
    12  C   -0.270429
    13  H    0.219876
    14  N   -0.460247
    15  H    0.355483
    16  H    0.214852
    17  C    0.557356
    18  N   -0.425257
    19  N   -0.418970
    20  H    0.421264
    21  C   -0.494386
    22  H    0.216683
    23  H    0.181338
    24  H    0.175065
    25  N    0.546150
    26  O   -0.501583
    27  O   -0.407978
    28  H    0.223158
 Sum of Mulliken charges =  -0.00000

 Dipole moment (field-independent basis, Debye):
    X=              3.0045    Y=              5.6867    Z=              0.7161  Tot=              6.4713
 Quadrupole moment (field-independent basis, Debye-Ang):
   XX=            -99.1125   YY=            -84.0368   ZZ=            -81.8612
   XY=            -24.0129   XZ=             -0.5353   YZ=              0.2876

 Normal termination of Gaussian 09 at Fri Aug 27 13:44:01 2021.
