 Gaussian 09, Revision E.01,
 Gaussian 09:  ES64L-G09RevE.01 30-Nov-2015

 ----------------
 #P G4 OPT=calcfc
 ----------------

 --------
 SONDEE01
 --------
 Symbolic Z-matrix:
 Charge =  0 Multiplicity = 1

 SCF Done:  E(RB3LYP) =  -753.177336877     A.U. after   15 cycles
 SCF Done:  E(RB3LYP) =  -753.274650877     A.U. after   14 cycles
 SCF Done:  E(RB3LYP) =  -753.318771234     A.U. after   16 cycles
 SCF Done:  E(RB3LYP) =  -753.322290162     A.U. after   16 cycles
 SCF Done:  E(RB3LYP) =  -753.320399622     A.U. after   14 cycles
 SCF Done:  E(RB3LYP) =  -753.323569955     A.U. after   11 cycles
 SCF Done:  E(RB3LYP) =  -753.271673090     A.U. after   15 cycles
 SCF Done:  E(RB3LYP) =  -753.324138797     A.U. after   11 cycles
 SCF Done:  E(RB3LYP) =  -753.326662764     A.U. after   15 cycles
 SCF Done:  E(RB3LYP) =  -753.314889538     A.U. after   14 cycles
 SCF Done:  E(RB3LYP) =  -753.328085587     A.U. after    8 cycles
 SCF Done:  E(RB3LYP) =  -753.328085627     A.U. after    7 cycles
 SCF Done:  E(RB3LYP) =  -753.328085656     A.U. after    7 cycles
 Optimization completed.
    -- Stationary point found.
 Normal termination of Gaussian 09 at Fri Aug 27 00:08:38 2021.

 ----------------------------------------------------------
 #P Geom=AllCheck Guess=TCheck SCRF=Check B3LYP/GTBas3 Freq
 ----------------------------------------------------------

 Structure from the checkpoint file:  "/public/home/users/caep010/.cache/gau_scr/Gau-40699.chk"
 --------
 SONDEE01
 --------
 Charge =  0 Multiplicity = 1

 SCF Done:  E(RB3LYP) =  -753.328085656     A.U. after    1 cycles

  Exact polarizability: 148.698   0.863 105.272  -7.093   1.321  70.076
 Approx polarizability: 209.451   5.602 193.104 -20.176   7.029 116.968

                      1                      2                      3
                      A                      A                      A
 Frequencies --     17.9117                41.6438                53.0558
 Red. masses --      8.7010                 5.5734                 5.8147
 Frc consts  --      0.0016                 0.0057                 0.0096
 IR Inten    --      3.9338                 1.4315                 3.0926

                      4                      5                      6
                      A                      A                      A
 Frequencies --     69.3019               136.7675               145.1172
 Red. masses --      5.0910                 1.1767                 4.2014
 Frc consts  --      0.0144                 0.0130                 0.0521
 IR Inten    --      1.3799                 0.6035                 3.0289

                      7                      8                      9
                      A                      A                      A
 Frequencies --    159.9343               213.4428               227.8022
 Red. masses --      5.9308                 4.8340                 6.8851
 Frc consts  --      0.0894                 0.1298                 0.2105
 IR Inten    --      6.4735                 0.5547                14.2975

                     10                     11                     12
                      A                      A                      A
 Frequencies --    236.6256               311.5373               331.2819
 Red. masses --      5.2521                 2.6290                 5.3407
 Frc consts  --      0.1733                 0.1503                 0.3453
 IR Inten    --      1.8548                 2.6529                 6.0410

                     13                     14                     15
                      A                      A                      A
 Frequencies --    354.3000               384.3106               442.6276
 Red. masses --      1.2336                 4.3096                 8.2340
 Frc consts  --      0.0912                 0.3750                 0.9505
 IR Inten    --    211.5094                 5.6316                 3.2609

                     16                     17                     18
                      A                      A                      A
 Frequencies --    488.8513               526.2710               567.6018
 Red. masses --      1.7900                 1.5564                 4.3164
 Frc consts  --      0.2520                 0.2540                 0.8193
 IR Inten    --      7.9579                 5.9388                12.1830

                     19                     20                     21
                      A                      A                      A
 Frequencies --    619.8428               639.7777               696.8522
 Red. masses --      4.2437                 5.7368                 5.3121
 Frc consts  --      0.9606                 1.3835                 1.5198
 IR Inten    --      2.0729                 4.1337                 3.1815

                     22                     23                     24
                      A                      A                      A
 Frequencies --    732.4304               776.0059               781.3110
 Red. masses --      6.6491                 8.4972                 9.8901
 Frc consts  --      2.1016                 3.0148                 3.5571
 IR Inten    --      7.8019                11.3367                16.2847

                     25                     26                     27
                      A                      A                      A
 Frequencies --    811.3440               843.3877               901.8735
 Red. masses --      4.5750                11.5770                 1.4600
 Frc consts  --      1.7744                 4.8518                 0.6997
 IR Inten    --      3.2308                45.0028                 7.8651

                     28                     29                     30
                      A                      A                      A
 Frequencies --    933.0429               971.7414               997.8275
 Red. masses --      4.3261                 3.0980                 1.8837
 Frc consts  --      2.2190                 1.7236                 1.1050
 IR Inten    --     45.2219                 3.2821                 7.7687

                     31                     32                     33
                      A                      A                      A
 Frequencies --   1081.3660              1117.6966              1153.0093
 Red. masses --      7.9675                 1.9885                 1.4602
 Frc consts  --      5.4893                 1.4636                 1.1437
 IR Inten    --    188.1066                54.5107                 2.7564

                     34                     35                     36
                      A                      A                      A
 Frequencies --   1153.4932              1178.6866              1225.6881
 Red. masses --      1.8984                 1.6181                 3.1549
 Frc consts  --      1.4882                 1.3245                 2.7925
 IR Inten    --     17.6115                 8.2655                71.1227

                     37                     38                     39
                      A                      A                      A
 Frequencies --   1257.5029              1307.8283              1327.7672
 Red. masses --      1.2803                 5.5587                 2.0581
 Frc consts  --      1.1928                 5.6018                 2.1378
 IR Inten    --      9.1779               127.6049               529.1944

                     40                     41                     42
                      A                      A                      A
 Frequencies --   1379.6673              1401.8113              1412.0473
 Red. masses --      4.3415                 2.5354                 4.4244
 Frc consts  --      4.8690                 2.9354                 5.1976
 IR Inten    --     15.1385                87.8359               189.8562

                     43                     44                     45
                      A                      A                      A
 Frequencies --   1452.6000              1473.3037              1492.8606
 Red. masses --      1.7246                 1.0517                 1.4619
 Frc consts  --      2.1440                 1.3450                 1.9196
 IR Inten    --     48.9074                 8.9049                 8.7034

                     46                     47                     48
                      A                      A                      A
 Frequencies --   1504.1281              1510.9774              1520.1090
 Red. masses --      1.2486                 2.5583                 2.2887
 Frc consts  --      1.6644                 3.4413                 3.1159
 IR Inten    --      6.4987               105.1917                71.6932

                     49                     50                     51
                      A                      A                      A
 Frequencies --   1553.0540              1611.9541              1613.5794
 Red. masses --      4.8488                 9.5593                 1.2583
 Frc consts  --      6.8906                14.6346                 1.9303
 IR Inten    --     17.0680               226.4289               106.1449

                     52                     53                     54
                      A                      A                      A
 Frequencies --   1842.0345              3064.8666              3084.1116
 Red. masses --     10.4728                 1.0614                 1.0327
 Frc consts  --     20.9367                 5.8742                 5.7877
 IR Inten    --    353.2964                 9.1566                11.5364

                     55                     56                     57
                      A                      A                      A
 Frequencies --   3126.6791              3157.5806              3187.3013
 Red. masses --      1.1025                 1.1045                 1.1042
 Frc consts  --      6.3503                 6.4885                 6.6091
 IR Inten    --      4.3890                 3.3009                 4.1756

                     58                     59                     60
                      A                      A                      A
 Frequencies --   3277.5472              3614.8699              3743.6277
 Red. masses --      1.0980                 1.0450                 1.1039
 Frc consts  --      6.9495                 8.0458                 9.1149
 IR Inten    --      1.1200                56.8173                54.8456

 - Thermochemistry -
 -------------------
 Temperature   298.150 Kelvin.  Pressure   1.00000 Atm.
 Atom     1 has atomic number  7 and mass  14.00307

 Molecular mass:   200.05455 amu.
 Principal axes and moments of inertia in atomic units:
                           1         2         3
     Eigenvalues --  1015.186805508.275756104.63781
           X            0.99996  -0.00715   0.00560
           Y            0.00715   0.99997   0.00098
           Z           -0.00560  -0.00094   0.99998
 This molecule is an asymmetric top.
 Rotational symmetry number  1.
 Warning -- assumption of classical behavior for rotation
           may cause significant error
 Rotational temperatures (Kelvin)      0.08532     0.01572     0.01419
 Rotational constants (GHZ):           1.77774     0.32764     0.29563
 Zero-point vibrational energy     426119.2 (Joules/Mol)
                                  101.84494 (Kcal/Mol)
 Warning -- explicit consideration of  19 degrees of freedom as
           vibrations may cause significant error
 Vibrational temperatures:     25.77    59.92    76.34    99.71   196.78
          (Kelvin)            208.79   230.11   307.10   327.76   340.45
                              448.23   476.64   509.76   552.94   636.84
                              703.35   757.19   816.65   891.81   920.50
                             1002.61  1053.80  1116.50  1124.13  1167.34
                             1213.45  1297.59  1342.44  1398.12  1435.65
                             1555.84  1608.11  1658.92  1659.62  1695.87
                             1763.49  1809.26  1881.67  1910.36  1985.03
                             2016.89  2031.62  2089.96  2119.75  2147.89
                             2164.10  2173.96  2187.10  2234.50  2319.24
                             2321.58  2650.27  4409.65  4437.34  4498.59
                             4543.05  4585.81  4715.65  5200.98  5386.24

 Zero-point correction=                           0.162300 (Hartree/Particle)
 Thermal correction to Energy=                    0.175594
 Thermal correction to Enthalpy=                  0.176539
 Thermal correction to Gibbs Free Energy=         0.119968
 Sum of electronic and zero-point Energies=           -753.165785
 Sum of electronic and thermal Energies=              -753.152491
 Sum of electronic and thermal Enthalpies=            -753.151547
 Sum of electronic and thermal Free Energies=         -753.208118

                     E (Thermal)             CV                S
                      KCal/Mol        Cal/Mol-Kelvin    Cal/Mol-Kelvin
 Total                  110.187             47.007            119.064
 Electronic               0.000              0.000              0.000
 Translational            0.889              2.981             41.785
 Rotational               0.889              2.981             31.901
 Vibrational            108.410             41.046             45.377
 Vibration     1          0.593              1.986              6.853
 Vibration     2          0.594              1.981              5.179
 Vibration     3          0.596              1.976              4.700
 Vibration     4          0.598              1.969              4.173
 Vibration     5          0.614              1.917              2.849
 Vibration     6          0.617              1.908              2.735
 Vibration     7          0.622              1.891              2.551
 Vibration     8          0.644              1.820              2.014
 Vibration     9          0.651              1.799              1.896
 Vibration    10          0.656              1.785              1.828
 Vibration    11          0.700              1.652              1.354
 Vibration    12          0.714              1.613              1.254
 Vibration    13          0.730              1.566              1.147
 Vibration    14          0.753              1.504              1.022
 Vibration    15          0.802              1.377              0.818
 Vibration    16          0.845              1.275              0.687
 Vibration    17          0.881              1.192              0.596
 Vibration    18          0.924              1.101              0.509
 Vibration    19          0.980              0.990              0.417

 Optimization completed.
    -- Stationary point found.
 Normal termination of Gaussian 09 at Fri Aug 27 00:12:11 2021.

 -----------------------------------------------------------------
 #P Geom=AllCheck Guess=TCheck SCRF=Check CCSD(T,E4T,FrzG4)/GTBas1
 -----------------------------------------------------------------

 Structure from the checkpoint file:  "/public/home/users/caep010/.cache/gau_scr/Gau-40699.chk"
 --------
 SONDEE01
 --------
 Charge =  0 Multiplicity = 1

 SCF Done:  E(RHF) =  -748.998735745     A.U. after   15 cycles
 E2 =    -0.2146371252D+01 EUMP2 =    -0.75114510699758D+03
 CCSD(T)
 CCSD(T)= -0.75126466062D+03
 SD=-751.1776345\CCSD(T)=-751.2646606\RMSD=4.965e-09\PG=C01 [X(C6H8N4O4
 Normal termination of Gaussian 09 at Fri Aug 27 02:25:42 2021.

 ---------------------------------------------------------
 #P Geom=AllCheck Guess=TCheck SCRF=Check MP4=FrzG4/GTBas2
 ---------------------------------------------------------

 Structure from the checkpoint file:  "/public/home/users/caep010/.cache/gau_scr/Gau-40699.chk"
 --------
 SONDEE01
 --------
 Charge =  0 Multiplicity = 1

 SCF Done:  E(RHF) =  -749.019680686     A.U. after   14 cycles
 E2 =    -0.2177287076D+01 EUMP2 =    -0.75119696776204D+03
 Normal termination of Gaussian 09 at Fri Aug 27 03:14:48 2021.

 ---------------------------------------------------------
 #P Geom=AllCheck Guess=TCheck SCRF=Check MP4=FrzG4/GTBas3
 ---------------------------------------------------------

 Structure from the checkpoint file:  "/public/home/users/caep010/.cache/gau_scr/Gau-40699.chk"
 --------
 SONDEE01
 --------
 Charge =  0 Multiplicity = 1

 SCF Done:  E(RHF) =  -749.077634120     A.U. after   12 cycles
 E2 =    -0.2577112496D+01 EUMP2 =    -0.75165474661646D+03
 Normal termination of Gaussian 09 at Fri Aug 27 13:13:45 2021.

 -----------------------------------------------------------
 #P Geom=AllCheck Guess=TCheck SCRF=Check MP2=Full/GTLargeXP
 -----------------------------------------------------------

 Structure from the checkpoint file:  "/public/home/users/caep010/.cache/gau_scr/Gau-40699.chk"
 --------
 SONDEE01
 --------
 Charge =  0 Multiplicity = 1

 SCF Done:  E(RHF) =  -749.270271409     A.U. after   15 cycles
 E2 =    -0.3362252369D+01 EUMP2 =    -0.75263252377813D+03
 Normal termination of Gaussian 09 at Fri Aug 27 13:30:41 2021.
 SCF Done:  E(RHF) =  -749.328122725     A.U. after   10 cycles
 Normal termination of Gaussian 09 at Fri Aug 27 13:38:44 2021.

                         Standard orientation:
 ---------------------------------------------------------------------
 Center     Atomic      Atomic             Coordinates (Angstroms)
 Number     Number       Type             X           Y           Z
 ---------------------------------------------------------------------
      1          7           0        0.773185    0.183047    0.294740
      2          6           0       -0.045725   -0.903945    0.229362
      3          6           0       -1.502220   -0.882925    0.548852
      4          7           0        0.602548   -2.008111   -0.126280
      5          1           0       -1.872156   -1.907990    0.484891
      6          6           0        1.894419   -1.638784   -0.300849
      7          1           0        2.671785   -2.324943   -0.595202
      8          6           0        0.384434    1.544373    0.657583
      9          1           0        0.922123    1.865950    1.549798
     10          6           0        2.026495   -0.290928   -0.050496
     11          1           0       -1.708293   -0.508014    1.555947
     12          8           0       -2.169969   -0.047331   -0.413419
     13          1           0       -0.688526    1.554202    0.836534
     14          6           0       -3.482471    0.198545   -0.128634
     15          7           0       -4.022121    0.988523   -1.099316
     16          8           0       -4.050013   -0.201792    0.858524
     17          1           0       -5.023598    1.078397   -1.094289
     18          1           0       -3.542273    1.079527   -1.978625
     19          7           0        3.203736    0.505255   -0.125418
     20          8           0        4.237043   -0.071317   -0.447809
     21          8           0        3.116166    1.706916    0.134331
     22          1           0        0.624080    2.232049   -0.153075
 ---------------------------------------------------------------------

 SCF Done:  E(RHF) =  -749.339875738     A.U. after    7 cycles

 The electronic state is 1-A.
 Alpha  occ. eigenvalues --  -20.62814 -20.60353 -20.60275 -20.54992 -15.86500
 Alpha  occ. eigenvalues --  -15.66356 -15.60670 -15.57937 -11.42681 -11.34331
 Alpha  occ. eigenvalues --  -11.33009 -11.32863 -11.29727 -11.29507  -1.60973
 Alpha  occ. eigenvalues --   -1.48877  -1.40298  -1.39131  -1.37847  -1.24103
 Alpha  occ. eigenvalues --   -1.22533  -1.12233  -1.03942  -0.99398  -0.93972
 Alpha  occ. eigenvalues --   -0.84522  -0.83664  -0.80539  -0.77490  -0.77128
 Alpha  occ. eigenvalues --   -0.73891  -0.73522  -0.72702  -0.70996  -0.68207
 Alpha  occ. eigenvalues --   -0.67281  -0.65949  -0.63582  -0.61626  -0.59693
 Alpha  occ. eigenvalues --   -0.59404  -0.58209  -0.56542  -0.51105  -0.50207
 Alpha  occ. eigenvalues --   -0.49791  -0.48432  -0.47052  -0.46230  -0.45252
 Alpha  occ. eigenvalues --   -0.42537  -0.36078
 Alpha virt. eigenvalues --    0.02391   0.03458   0.03731   0.03939   0.04290
 Alpha virt. eigenvalues --    0.05335   0.05554   0.06009   0.06380   0.06755
 Alpha virt. eigenvalues --    0.07949   0.08172   0.08438   0.08821   0.09237

 Mulliken charges:
               1
     1  N    0.042465
     2  C    0.378395
     3  C   -0.271602
     4  N   -0.504025
     5  H    0.238905
     6  C   -0.005392
     7  H    0.274363
     8  C   -0.557660
     9  H    0.222572
    10  C    0.115518
    11  H    0.233353
    12  O   -0.333901
    13  H    0.217031
    14  C    0.726406
    15  N   -0.710439
    16  O   -0.614295
    17  H    0.357448
    18  H    0.346976
    19  N    0.497902
    20  O   -0.429371
    21  O   -0.447238
    22  H    0.222588
 Sum of Mulliken charges =  -0.00000

 Dipole moment (field-independent basis, Debye):
    X=             -4.0269    Y=              1.3951    Z=             -1.3526  Tot=              4.4712
 Quadrupole moment (field-independent basis, Debye-Ang):
   XX=            -97.6815   YY=            -83.5779   ZZ=            -76.4285
   XY=            -10.9220   XZ=             13.7505   YZ=             -1.3131

 Normal termination of Gaussian 09 at Fri Aug 27 14:26:44 2021.
