 Gaussian 09, Revision E.01,
 Gaussian 09:  ES64L-G09RevE.01 30-Nov-2015

 ----------------
 #P G4 OPT=calcfc
 ----------------

 ------
 SEGFAL
 ------
 Symbolic Z-matrix:
 Charge =  0 Multiplicity = 1

 SCF Done:  E(RB3LYP) =  -690.485402778     A.U. after   16 cycles
 SCF Done:  E(RB3LYP) =  -690.561976261     A.U. after   14 cycles
 SCF Done:  E(RB3LYP) =  -690.580149069     A.U. after   16 cycles
 SCF Done:  E(RB3LYP) =  -690.583307299     A.U. after   15 cycles
 SCF Done:  E(RB3LYP) =  -690.583710986     A.U. after   14 cycles
 SCF Done:  E(RB3LYP) =  -690.583810933     A.U. after   13 cycles
 SCF Done:  E(RB3LYP) =  -690.583835306     A.U. after   11 cycles
 SCF Done:  E(RB3LYP) =  -690.583838574     A.U. after   10 cycles
 SCF Done:  E(RB3LYP) =  -690.583838869     A.U. after    9 cycles
 Optimization completed.
    -- Stationary point found.
 Normal termination of Gaussian 09 at Thu Aug 26 09:34:20 2021.

 ----------------------------------------------------------
 #P Geom=AllCheck Guess=TCheck SCRF=Check B3LYP/GTBas3 Freq
 ----------------------------------------------------------

 Structure from the checkpoint file:  "/public/home/users/caep010/.cache/gau_scr/Gau-122998.chk"
 ------
 SEGFAL
 ------
 Charge =  0 Multiplicity = 1

 SCF Done:  E(RB3LYP) =  -690.583838869     A.U. after    1 cycles

  Exact polarizability: 111.889   2.433  93.315   0.003   0.000  41.390
 Approx polarizability: 168.777   3.944 199.868   0.004  -0.007  67.119

                      1                      2                      3
                      A                      A                      A
 Frequencies --     37.8386                45.1262               127.7435
 Red. masses --     14.1995                 7.4547                 7.4521
 Frc consts  --      0.0120                 0.0089                 0.0716
 IR Inten    --      0.0210                 1.6339                 1.0090

                      4                      5                      6
                      A                      A                      A
 Frequencies --    151.2332               152.4002               206.4165
 Red. masses --      1.1023                12.7779                 5.4033
 Frc consts  --      0.0149                 0.1749                 0.1356
 IR Inten    --      0.5129                 2.0690                 2.9314

                      7                      8                      9
                      A                      A                      A
 Frequencies --    252.1280               322.6751               345.3512
 Red. masses --      5.1375                 7.9856                12.3328
 Frc consts  --      0.1924                 0.4899                 0.8666
 IR Inten    --      3.8830                 0.0034                 0.2631

                     10                     11                     12
                      A                      A                      A
 Frequencies --    352.5564               472.3530               515.8179
 Red. masses --      5.8370                 9.0758                 9.9473
 Frc consts  --      0.4275                 1.1931                 1.5594
 IR Inten    --      0.8090                 1.5424                 0.4831

                     13                     14                     15
                      A                      A                      A
 Frequencies --    636.5725               656.2771               669.4135
 Red. masses --      7.8086                10.7725                13.2651
 Frc consts  --      1.8643                 2.7336                 3.5023
 IR Inten    --      3.3039                 8.3161                18.2882

                     16                     17                     18
                      A                      A                      A
 Frequencies --    729.8382               792.0400               810.1330
 Red. masses --      6.9783                12.9245                13.2467
 Frc consts  --      2.1901                 4.7770                 5.1224
 IR Inten    --     16.5564                 1.2646                 0.0205

                     19                     20                     21
                      A                      A                      A
 Frequencies --    842.3577               869.5909              1038.8399
 Red. masses --     14.9724                12.8428                 9.5203
 Frc consts  --      6.2594                 5.7219                 6.0534
 IR Inten    --     23.1607               121.6380                 2.5364

                     22                     23                     24
                      A                      A                      A
 Frequencies --   1065.6384              1152.6204              1188.5370
 Red. masses --      2.1235                 1.3163                 6.0847
 Frc consts  --      1.4208                 1.0303                 5.0642
 IR Inten    --     12.9015                 0.0017                 7.8562

                     25                     26                     27
                      A                      A                      A
 Frequencies --   1315.7468              1370.3286              1381.1722
 Red. masses --      4.3617                11.6958                10.0054
 Frc consts  --      4.4489                12.9399                11.2456
 IR Inten    --     18.6246                 6.9801               278.8076

                     28                     29                     30
                      A                      A                      A
 Frequencies --   1399.9778              1416.5953              1443.1506
 Red. masses --     10.1964                 3.3075                 5.9779
 Frc consts  --     11.7744                 3.9106                 7.3353
 IR Inten    --     36.2504                83.6439                 2.6062

                     31                     32                     33
                      A                      A                      A
 Frequencies --   1476.1521              1478.2153              1493.2114
 Red. masses --      1.0412                 1.8378                 1.1372
 Frc consts  --      1.3367                 2.3660                 1.4940
 IR Inten    --     11.8024                 5.5085                18.7184

                     34                     35                     36
                      A                      A                      A
 Frequencies --   1544.4673              1659.1005              1668.8682
 Red. masses --     10.0642                14.0014                14.5085
 Frc consts  --     14.1445                22.7073                23.8077
 IR Inten    --     71.7759               122.3050               297.3306

                     37                     38                     39
                      A                      A                      A
 Frequencies --   3084.2301              3167.6814              3191.4929
 Red. masses --      1.0307                 1.1052                 1.1070
 Frc consts  --      5.7765                 6.5339                 6.6432
 IR Inten    --      4.5125                 1.0200                 0.5902

 - Thermochemistry -
 -------------------
 Temperature   298.150 Kelvin.  Pressure   1.00000 Atm.
 Atom     1 has atomic number  6 and mass  12.00000

 Molecular mass:   173.01850 amu.
 Principal axes and moments of inertia in atomic units:
                           1         2         3
     Eigenvalues --   898.552992845.795053733.03291
           X            0.99975   0.02255   0.00000
           Y           -0.02255   0.99975   0.00001
           Z           -0.00000  -0.00001   1.00000
 This molecule is an asymmetric top.
 Rotational symmetry number  1.
 Warning -- assumption of classical behavior for rotation
           may cause significant error
 Rotational temperatures (Kelvin)      0.09639     0.03044     0.02320
 Rotational constants (GHZ):           2.00850     0.63418     0.48345
 Zero-point vibrational energy     242386.7 (Joules/Mol)
                                   57.93181 (Kcal/Mol)
 Warning -- explicit consideration of  12 degrees of freedom as
           vibrations may cause significant error
 Vibrational temperatures:     54.44    64.93   183.79   217.59   219.27
          (Kelvin)            296.99   362.76   464.26   496.88   507.25
                              679.61   742.15   915.88   944.24   963.14
                             1050.07  1139.57  1165.60  1211.96  1251.15
                             1494.66  1533.21  1658.36  1710.04  1893.06
                             1971.59  1987.20  2014.25  2038.16  2076.37
                             2123.85  2126.82  2148.40  2222.14  2387.07
                             2401.13  4437.51  4557.58  4591.84

 Zero-point correction=                           0.092320 (Hartree/Particle)
 Thermal correction to Energy=                    0.102385
 Thermal correction to Enthalpy=                  0.103329
 Thermal correction to Gibbs Free Energy=         0.054879
 Sum of electronic and zero-point Energies=           -690.491519
 Sum of electronic and thermal Energies=              -690.481454
 Sum of electronic and thermal Enthalpies=            -690.480510
 Sum of electronic and thermal Free Energies=         -690.528960

                     E (Thermal)             CV                S
                      KCal/Mol        Cal/Mol-Kelvin    Cal/Mol-Kelvin
 Total                   64.248             34.660            101.972
 Electronic               0.000              0.000              0.000
 Translational            0.889              2.981             41.352
 Rotational               0.889              2.981             30.635
 Vibrational             62.470             28.698             29.984
 Vibration     1          0.594              1.982              5.369
 Vibration     2          0.595              1.979              5.020
 Vibration     3          0.611              1.925              2.980
 Vibration     4          0.619              1.901              2.657
 Vibration     5          0.619              1.900              2.642
 Vibration     6          0.641              1.831              2.075
 Vibration     7          0.664              1.759              1.716
 Vibration     8          0.708              1.630              1.297
 Vibration     9          0.724              1.585              1.187
 Vibration    10          0.729              1.570              1.155
 Vibration    11          0.829              1.311              0.731
 Vibration    12          0.871              1.215              0.620

 Optimization completed.
    -- Stationary point found.
 Normal termination of Gaussian 09 at Thu Aug 26 09:36:16 2021.

 -----------------------------------------------------------------
 #P Geom=AllCheck Guess=TCheck SCRF=Check CCSD(T,E4T,FrzG4)/GTBas1
 -----------------------------------------------------------------

 Structure from the checkpoint file:  "/public/home/users/caep010/.cache/gau_scr/Gau-122998.chk"
 ------
 SEGFAL
 ------
 Charge =  0 Multiplicity = 1

 SCF Done:  E(RHF) =  -686.731118856     A.U. after   15 cycles
 E2 =    -0.1966850424D+01 EUMP2 =    -0.68869796927950D+03
 CCSD(T)
 CCSD(T)= -0.68877421929D+03
 6852326\CCSD(T)=-688.7742193\RMSD=8.978e-09\PG=C01 [X(C3H3N5O4)]\\@
 Normal termination of Gaussian 09 at Thu Aug 26 10:27:01 2021.

 ---------------------------------------------------------
 #P Geom=AllCheck Guess=TCheck SCRF=Check MP4=FrzG4/GTBas2
 ---------------------------------------------------------

 Structure from the checkpoint file:  "/public/home/users/caep010/.cache/gau_scr/Gau-122998.chk"
 ------
 SEGFAL
 ------
 Charge =  0 Multiplicity = 1

 SCF Done:  E(RHF) =  -686.749918150     A.U. after   13 cycles
 E2 =    -0.1993041764D+01 EUMP2 =    -0.68874295991415D+03
 Normal termination of Gaussian 09 at Thu Aug 26 10:46:03 2021.

 ---------------------------------------------------------
 #P Geom=AllCheck Guess=TCheck SCRF=Check MP4=FrzG4/GTBas3
 ---------------------------------------------------------

 Structure from the checkpoint file:  "/public/home/users/caep010/.cache/gau_scr/Gau-122998.chk"
 ------
 SEGFAL
 ------
 Charge =  0 Multiplicity = 1

 SCF Done:  E(RHF) =  -686.801540599     A.U. after   13 cycles
 E2 =    -0.2331705167D+01 EUMP2 =    -0.68913324576644D+03
 Normal termination of Gaussian 09 at Thu Aug 26 13:01:39 2021.

 -----------------------------------------------------------
 #P Geom=AllCheck Guess=TCheck SCRF=Check MP2=Full/GTLargeXP
 -----------------------------------------------------------

 Structure from the checkpoint file:  "/public/home/users/caep010/.cache/gau_scr/Gau-122998.chk"
 ------
 SEGFAL
 ------
 Charge =  0 Multiplicity = 1

 SCF Done:  E(RHF) =  -686.979088989     A.U. after   13 cycles
 E2 =    -0.3015929981D+01 EUMP2 =    -0.68999501896994D+03
 Normal termination of Gaussian 09 at Thu Aug 26 13:15:06 2021.
 SCF Done:  E(RHF) =  -687.033697323     A.U. after    9 cycles
 Normal termination of Gaussian 09 at Thu Aug 26 13:19:06 2021.

                         Standard orientation:
 ---------------------------------------------------------------------
 Center     Atomic      Atomic             Coordinates (Angstroms)
 Number     Number       Type             X           Y           Z
 ---------------------------------------------------------------------
      1          6           0        1.494348    2.256506    0.000080
      2          7           0        0.612452    1.089533    0.000026
      3          7           0       -0.715769    1.265950    0.000009
      4          6           0       -1.168900    0.018984   -0.000016
      5          7           0       -0.245532   -0.952755   -0.000048
      6          1           0        2.127452    2.243623    0.887121
      7          6           0        0.861456   -0.246533    0.000000
      8          1           0        2.128124    2.243112   -0.885998
      9          7           0       -2.607802   -0.256852   -0.000017
     10          8           0       -3.345645    0.714572   -0.000148
     11          8           0       -2.934654   -1.429690    0.000148
     12          1           0        0.841970    3.127762   -0.000342
     13          7           0        2.200371   -0.819467   -0.000039
     14          8           0        2.285578   -2.028795    0.000082
     15          8           0        3.129097   -0.015226   -0.000167
 ---------------------------------------------------------------------

 SCF Done:  E(RHF) =  -687.044491521     A.U. after    7 cycles

 The electronic state is 1-A.
 Alpha  occ. eigenvalues --  -20.65497 -20.64609 -20.62585 -20.62288 -15.90815
 Alpha  occ. eigenvalues --  -15.88108 -15.74124 -15.68186 -15.64555 -11.42662
 Alpha  occ. eigenvalues --  -11.39837 -11.32384  -1.65990  -1.63394  -1.50467
 Alpha  occ. eigenvalues --   -1.45344  -1.42810  -1.30255  -1.22142  -1.08755
 Alpha  occ. eigenvalues --   -1.07017  -0.98889  -0.88016  -0.86466  -0.82551
 Alpha  occ. eigenvalues --   -0.78763  -0.78709  -0.76557  -0.75389  -0.74418
 Alpha  occ. eigenvalues --   -0.71520  -0.71198  -0.63328  -0.62719  -0.59640
 Alpha  occ. eigenvalues --   -0.55454  -0.54692  -0.53054  -0.52254  -0.51363
 Alpha  occ. eigenvalues --   -0.49846  -0.48525  -0.47047  -0.44040
 Alpha virt. eigenvalues --    0.00077   0.02068   0.02637   0.03839   0.04278
 Alpha virt. eigenvalues --    0.04411   0.06378   0.06442   0.06624   0.07199
 Alpha virt. eigenvalues --    0.07207   0.08819   0.10460   0.10594   0.11471

 Mulliken charges:
               1
     1  C   -0.552448
     2  N    0.200102
     3  N   -0.246532
     4  C    0.369423
     5  N   -0.409938
     6  H    0.227676
     7  C    0.388204
     8  H    0.227732
     9  N    0.513039
    10  O   -0.373740
    11  O   -0.365180
    12  H    0.249658
    13  N    0.520083
    14  O   -0.338725
    15  O   -0.409353
 Sum of Mulliken charges =  -0.00000

 Dipole moment (field-independent basis, Debye):
    X=              3.5093    Y=              4.2488    Z=              0.0002  Tot=              5.5106
 Quadrupole moment (field-independent basis, Debye-Ang):
   XX=            -86.6226   YY=            -69.9771   ZZ=            -63.1847
   XY=              6.9712   XZ=              0.0005   YZ=              0.0010

 Normal termination of Gaussian 09 at Thu Aug 26 13:46:35 2021.
