 Gaussian 09, Revision E.01,
 Gaussian 09:  ES64L-G09RevE.01 30-Nov-2015

 ----------------
 #P G4 OPT=calcfc
 ----------------

 ------
 SIYWIH
 ------
 Symbolic Z-matrix:
 Charge =  0 Multiplicity = 1

 SCF Done:  E(RB3LYP) =  -751.891164161     A.U. after   15 cycles
 SCF Done:  E(RB3LYP) =  -751.995378617     A.U. after   13 cycles
 SCF Done:  E(RB3LYP) =  -752.034699529     A.U. after   16 cycles
 SCF Done:  E(RB3LYP) =  -752.035858985     A.U. after   14 cycles
 SCF Done:  E(RB3LYP) =  -752.035990815     A.U. after   13 cycles
 SCF Done:  E(RB3LYP) =  -752.036002472     A.U. after   11 cycles
 SCF Done:  E(RB3LYP) =  -752.036005397     A.U. after    8 cycles
 SCF Done:  E(RB3LYP) =  -752.036005667     A.U. after    9 cycles
 Optimization completed.
    -- Stationary point found.
 Normal termination of Gaussian 09 at Fri Aug 27 08:31:57 2021.

 ----------------------------------------------------------
 #P Geom=AllCheck Guess=TCheck SCRF=Check B3LYP/GTBas3 Freq
 ----------------------------------------------------------

 Structure from the checkpoint file:  "/public/home/users/caep010/.cache/gau_scr/Gau-215383.chk"
 ------
 SIYWIH
 ------
 Charge =  0 Multiplicity = 1

 SCF Done:  E(RB3LYP) =  -752.036005667     A.U. after    1 cycles

  Exact polarizability: 183.166   0.000 136.453   0.005  -0.001  45.549
 Approx polarizability: 338.159   0.001 256.810   0.030   0.000  76.197

                      1                      2                      3
                      A                      A                      A
 Frequencies --     56.3010                63.9791                78.9483
 Red. masses --     11.0780                13.2775                13.3113
 Frc consts  --      0.0207                 0.0320                 0.0489
 IR Inten    --      0.0000                 2.7922                 0.0013

                      4                      5                      6
                      A                      A                      A
 Frequencies --    143.3493               190.4492               192.3607
 Red. masses --      5.6965                12.7174                 3.9407
 Frc consts  --      0.0690                 0.2718                 0.0859
 IR Inten    --      0.7143                 3.3256                88.7411

                      7                      8                      9
                      A                      A                      A
 Frequencies --    229.6594               269.1408               328.5608
 Red. masses --      1.0781                 1.3073                 7.1579
 Frc consts  --      0.0335                 0.0558                 0.4553
 IR Inten    --      0.0235               259.2237                 0.4585

                     10                     11                     12
                      A                      A                      A
 Frequencies --    341.5402               350.5328               361.4009
 Red. masses --     10.6929                 8.5265                 3.7346
 Frc consts  --      0.7349                 0.6173                 0.2874
 IR Inten    --      0.0004                 0.5116                 7.7539

                     13                     14                     15
                      A                      A                      A
 Frequencies --    381.8177               418.4502               461.0958
 Red. masses --      7.7864                 5.3140                 3.1835
 Frc consts  --      0.6688                 0.5482                 0.3988
 IR Inten    --      4.8054                 0.2756                 0.2836

                     16                     17                     18
                      A                      A                      A
 Frequencies --    508.8085               599.4391               611.9097
 Red. masses --      9.0966                 1.0554                 7.3138
 Frc consts  --      1.3875                 0.2234                 1.6135
 IR Inten    --      1.5410                20.8687                 6.4647

                     19                     20                     21
                      A                      A                      A
 Frequencies --    612.7471               629.1340               682.3541
 Red. masses --      3.5188                 1.1117                 6.2482
 Frc consts  --      0.7784                 0.2592                 1.7141
 IR Inten    --      1.6423                 0.0039                 0.0002

                     22                     23                     24
                      A                      A                      A
 Frequencies --    704.6539               732.0549               767.1638
 Red. masses --      2.8078                 8.0257                 6.2570
 Frc consts  --      0.8214                 2.5341                 2.1697
 IR Inten    --      0.4494                33.1557                 0.8499

                     25                     26                     27
                      A                      A                      A
 Frequencies --    773.3050               794.3205               831.9213
 Red. masses --      4.9767                13.2811                 1.9164
 Frc consts  --      1.7534                 4.9371                 0.7815
 IR Inten    --     15.7924                 0.0000                27.9602

                     28                     29                     30
                      A                      A                      A
 Frequencies --    848.5975               885.0419               992.8510
 Red. masses --     13.4491                 4.7270                 1.4080
 Frc consts  --      5.7062                 2.1816                 0.8177
 IR Inten    --     15.4010                 7.3308                 4.6951

                     31                     32                     33
                      A                      A                      A
 Frequencies --   1040.0786              1058.5036              1128.1235
 Red. masses --      1.5739                 2.3339                 1.4583
 Frc consts  --      1.0031                 1.5407                 1.0934
 IR Inten    --      1.6095               131.3140                 3.3083

                     34                     35                     36
                      A                      A                      A
 Frequencies --   1165.2015              1265.4902              1288.7312
 Red. masses --      8.2349                 1.8792                 1.8427
 Frc consts  --      6.5874                 1.7731                 1.8032
 IR Inten    --     18.0926                31.8268                88.1130

                     37                     38                     39
                      A                      A                      A
 Frequencies --   1344.2992              1353.9364              1379.9190
 Red. masses --      4.6704                 6.7614                 6.0814
 Frc consts  --      4.9727                 7.3027                 6.8228
 IR Inten    --    830.4721               188.5307                18.9237

                     40                     41                     42
                      A                      A                      A
 Frequencies --   1427.2497              1499.6723              1524.2432
 Red. masses --      6.5580                 3.0948                 2.4505
 Frc consts  --      7.8709                 4.1009                 3.3544
 IR Inten    --     76.8239               193.2688                21.9822

                     43                     44                     45
                      A                      A                      A
 Frequencies --   1551.2001              1554.1062              1620.7530
 Red. masses --      5.5422                 5.0255                 1.7788
 Frc consts  --      7.8572                 7.1514                 2.7530
 IR Inten    --      5.8101                22.1352                88.9228

                     46                     47                     48
                      A                      A                      A
 Frequencies --   1625.6753              1630.1226              1677.4375
 Red. masses --      3.0936                 2.9554                 8.1445
 Frc consts  --      4.8170                 4.6271                13.5022
 IR Inten    --    510.7145                70.3305               719.0720

                     49                     50                     51
                      A                      A                      A
 Frequencies --   3167.0452              3259.7077              3559.8769
 Red. masses --      1.0889                 1.0892                 1.0477
 Frc consts  --      6.4348                 6.8187                 7.8227
 IR Inten    --     10.7205                20.7620               297.9373

                     52                     53                     54
                      A                      A                      A
 Frequencies --   3562.1021              3726.6336              3727.1907
 Red. masses --      1.0482                 1.1014                 1.1015
 Frc consts  --      7.8365                 9.0120                 9.0158
 IR Inten    --      3.5753                10.9055               156.9110

 - Thermochemistry -
 -------------------
 Temperature   298.150 Kelvin.  Pressure   1.00000 Atm.
 Atom     1 has atomic number  6 and mass  12.00000

 Molecular mass:   198.03890 amu.
 Principal axes and moments of inertia in atomic units:
                           1         2         3
     Eigenvalues --  1504.360813536.054675040.41451
           X            1.00000   0.00000  -0.00002
           Y           -0.00000   1.00000  -0.00000
           Z            0.00002   0.00000   1.00000
 This molecule is an asymmetric top.
 Rotational symmetry number  1.
 Warning -- assumption of classical behavior for rotation
           may cause significant error
 Rotational temperatures (Kelvin)      0.05758     0.02449     0.01718
 Rotational constants (GHZ):           1.19967     0.51038     0.35805
 Zero-point vibrational energy     364736.5 (Joules/Mol)
                                   87.17412 (Kcal/Mol)
 Warning -- explicit consideration of  19 degrees of freedom as
           vibrations may cause significant error
 Vibrational temperatures:     81.00    92.05   113.59   206.25   274.01
          (Kelvin)            276.76   330.43   387.23   472.73   491.40
                              504.34   519.97   549.35   602.06   663.41
                              732.06   862.46   880.40   881.61   905.18
                              981.75  1013.84  1053.26  1103.78  1112.61
                             1142.85  1196.95  1220.94  1273.38  1428.49
                             1496.44  1522.95  1623.12  1676.46  1820.76
                             1854.19  1934.14  1948.01  1985.39  2053.49
                             2157.69  2193.04  2231.83  2236.01  2331.90
                             2338.98  2345.38  2413.46  4556.67  4689.99
                             5121.86  5125.06  5361.79  5362.59

 Zero-point correction=                           0.138921 (Hartree/Particle)
 Thermal correction to Energy=                    0.151110
 Thermal correction to Enthalpy=                  0.152054
 Thermal correction to Gibbs Free Energy=         0.100100
 Sum of electronic and zero-point Energies=           -751.897085
 Sum of electronic and thermal Energies=              -751.884896
 Sum of electronic and thermal Enthalpies=            -751.883952
 Sum of electronic and thermal Free Energies=         -751.935906

                     E (Thermal)             CV                S
                      KCal/Mol        Cal/Mol-Kelvin    Cal/Mol-Kelvin
 Total                   94.823             45.834            109.347
 Electronic               0.000              0.000              0.000
 Translational            0.889              2.981             41.755
 Rotational               0.889              2.981             31.661
 Vibrational             93.045             39.872             35.931
 Vibration     1          0.596              1.975              4.583
 Vibration     2          0.597              1.971              4.331
 Vibration     3          0.600              1.963              3.917
 Vibration     4          0.616              1.910              2.759
 Vibration     5          0.634              1.853              2.223
 Vibration     6          0.634              1.850              2.205
 Vibration     7          0.652              1.796              1.882
 Vibration     8          0.674              1.730              1.602
 Vibration     9          0.712              1.618              1.267
 Vibration    10          0.721              1.592              1.205
 Vibration    11          0.727              1.574              1.164
 Vibration    12          0.736              1.552              1.116
 Vibration    13          0.751              1.509              1.032
 Vibration    14          0.781              1.430              0.897
 Vibration    15          0.819              1.336              0.763
 Vibration    16          0.864              1.230              0.636
 Vibration    17          0.958              1.033              0.451
 Vibration    18          0.971              1.007              0.430
 Vibration    19          0.972              1.005              0.428

 Normal termination of Gaussian 09 at Fri Aug 27 08:35:29 2021.

 -----------------------------------------------------------------
 #P Geom=AllCheck Guess=TCheck SCRF=Check CCSD(T,E4T,FrzG4)/GTBas1
 -----------------------------------------------------------------

 Structure from the checkpoint file:  "/public/home/users/caep010/.cache/gau_scr/Gau-215383.chk"
 ------
 SIYWIH
 ------
 Charge =  0 Multiplicity = 1

 SCF Done:  E(RHF) =  -747.702465456     A.U. after   14 cycles
 E2 =    -0.2162915047D+01 EUMP2 =    -0.74986538050228D+03
 CCSD(T)
 CCSD(T)= -0.74997716676D+03
 MP4SDTQ=-750.0013703\MP4SDQ=-749.8884815\CCSD=-749.880955\CCSD(T)=-749
 Normal termination of Gaussian 09 at Fri Aug 27 10:44:28 2021.

 ---------------------------------------------------------
 #P Geom=AllCheck Guess=TCheck SCRF=Check MP4=FrzG4/GTBas2
 ---------------------------------------------------------

 Structure from the checkpoint file:  "/public/home/users/caep010/.cache/gau_scr/Gau-215383.chk"
 ------
 SIYWIH
 ------
 Charge =  0 Multiplicity = 1

 SCF Done:  E(RHF) =  -747.725021177     A.U. after   21 cycles
 E2 =    -0.2192924399D+01 EUMP2 =    -0.74991794557531D+03
 Normal termination of Gaussian 09 at Fri Aug 27 11:38:21 2021.

 ---------------------------------------------------------
 #P Geom=AllCheck Guess=TCheck SCRF=Check MP4=FrzG4/GTBas3
 ---------------------------------------------------------

 Structure from the checkpoint file:  "/public/home/users/caep010/.cache/gau_scr/Gau-215383.chk"
 ------
 SIYWIH
 ------
 Charge =  0 Multiplicity = 1

 SCF Done:  E(RHF) =  -747.785907488     A.U. after   13 cycles
 E2 =    -0.2581642808D+01 EUMP2 =    -0.75036755029612D+03
 Normal termination of Gaussian 09 at Fri Aug 27 19:11:11 2021.

 -----------------------------------------------------------
 #P Geom=AllCheck Guess=TCheck SCRF=Check MP2=Full/GTLargeXP
 -----------------------------------------------------------

 Structure from the checkpoint file:  "/public/home/users/caep010/.cache/gau_scr/Gau-215383.chk"
 ------
 SIYWIH
 ------
 Charge =  0 Multiplicity = 1

 SCF Done:  E(RHF) =  -747.976454388     A.U. after   14 cycles
 E2 =    -0.3366931595D+01 EUMP2 =    -0.75134338598313D+03
 Normal termination of Gaussian 09 at Fri Aug 27 19:25:55 2021.
 SCF Done:  E(RHF) =  -748.036674702     A.U. after   10 cycles
 Normal termination of Gaussian 09 at Fri Aug 27 19:34:15 2021.

                         Standard orientation:
 ---------------------------------------------------------------------
 Center     Atomic      Atomic             Coordinates (Angstroms)
 Number     Number       Type             X           Y           Z
 ---------------------------------------------------------------------
      1          6           0       -1.235135    1.244826   -0.000276
      2          7           0       -2.382528    1.951219   -0.001329
      3          1           0       -2.356470    2.955068    0.001726
      4          1           0       -3.255134    1.444731    0.001334
      5          6           0       -0.000012    1.902631   -0.000027
      6          6           0        1.235119    1.244842    0.000290
      7          6           0        1.209841   -0.190130    0.000175
      8          7           0        2.382490    1.951286    0.001446
      9          6           0        0.000007   -0.861476    0.000040
     10          1           0        2.356386    2.955132   -0.002223
     11          1           0        3.255124    1.444843   -0.001540
     12          7           0        2.411755   -0.994600   -0.000014
     13          6           0       -1.209830   -0.190143   -0.000105
     14          7           0       -2.411738   -0.994604    0.000005
     15          8           0       -3.512339   -0.420418    0.001149
     16          1           0       -0.000016    2.988480   -0.000038
     17          1           0        0.000019   -1.941527    0.000033
     18          8           0        3.512359   -0.420429   -0.001193
     19          8           0        2.301105   -2.213521    0.000859
     20          8           0       -2.301089   -2.213523   -0.000894
 ---------------------------------------------------------------------

 SCF Done:  E(RHF) =  -748.048455121     A.U. after    8 cycles

 The electronic state is 1-A.
 Alpha  occ. eigenvalues --  -20.60396 -20.60396 -20.60101 -20.60101 -15.86244
 Alpha  occ. eigenvalues --  -15.86244 -15.60592 -15.60592 -11.35710 -11.35710
 Alpha  occ. eigenvalues --  -11.30872 -11.30797 -11.30686 -11.25411  -1.60717
 Alpha  occ. eigenvalues --   -1.60687  -1.39908  -1.39883  -1.29278  -1.27320
 Alpha  occ. eigenvalues --   -1.18921  -1.11649  -1.07254  -0.98497  -0.94499
 Alpha  occ. eigenvalues --   -0.88096  -0.85278  -0.80308  -0.77942  -0.76670
 Alpha  occ. eigenvalues --   -0.74611  -0.73320  -0.73312  -0.72973  -0.72445
 Alpha  occ. eigenvalues --   -0.70937  -0.65686  -0.64670  -0.62564  -0.59705
 Alpha  occ. eigenvalues --   -0.57671  -0.54037  -0.51110  -0.50567  -0.49758
 Alpha  occ. eigenvalues --   -0.49681  -0.48006  -0.46486  -0.45841  -0.35389
 Alpha  occ. eigenvalues --   -0.35022
 Alpha virt. eigenvalues --    0.01821   0.02727   0.03239   0.05074   0.05195
 Alpha virt. eigenvalues --    0.05683   0.05865   0.06127   0.07454   0.07676
 Alpha virt. eigenvalues --    0.07753   0.08409   0.08513   0.09268   0.09417

 Mulliken charges:
               1
     1  C    0.332439
     2  N   -0.782093
     3  H    0.338625
     4  H    0.399485
     5  C   -0.251071
     6  C    0.332406
     7  C    0.099180
     8  N   -0.782070
     9  C   -0.155740
    10  H    0.338622
    11  H    0.399473
    12  N    0.504638
    13  C    0.099173
    14  N    0.504634
    15  O   -0.470712
    16  H    0.146880
    17  H    0.305980
    18  O   -0.470709
    19  O   -0.444571
    20  O   -0.444569
 Sum of Mulliken charges =  -0.00000

 Dipole moment (field-independent basis, Debye):
    X=             -0.0001    Y=              7.7447    Z=             -0.0012  Tot=              7.7447
 Quadrupole moment (field-independent basis, Debye-Ang):
   XX=            -95.8199   YY=            -73.4106   ZZ=            -81.4157
   XY=              0.0002   XZ=             -0.0439   YZ=             -0.0040

 Normal termination of Gaussian 09 at Fri Aug 27 20:30:33 2021.
