 Gaussian 09, Revision E.01,
 Gaussian 09:  ES64L-G09RevE.01 30-Nov-2015

 -----
 #P G4
 -----

 ------
 SAQZAK
 ------
 Symbolic Z-matrix:
 Charge =  0 Multiplicity = 1

 SCF Done:  E(RB3LYP) =  -706.560344429     A.U. after   16 cycles
 SCF Done:  E(RB3LYP) =  -706.587038387     A.U. after   14 cycles
 SCF Done:  E(RB3LYP) =  -706.587324258     A.U. after   14 cycles
 SCF Done:  E(RB3LYP) =  -706.577839147     A.U. after   16 cycles
 SCF Done:  E(RB3LYP) =  -706.587664347     A.U. after   12 cycles
 SCF Done:  E(RB3LYP) =  -706.587914605     A.U. after   13 cycles
 SCF Done:  E(RB3LYP) =  -706.587244909     A.U. after   14 cycles
 SCF Done:  E(RB3LYP) =  -706.587935111     A.U. after    9 cycles
 SCF Done:  E(RB3LYP) =  -706.587977804     A.U. after   13 cycles
 SCF Done:  E(RB3LYP) =  -706.587991692     A.U. after   13 cycles
 SCF Done:  E(RB3LYP) =  -706.588012791     A.U. after   11 cycles
 SCF Done:  E(RB3LYP) =  -706.588015672     A.U. after    9 cycles
 SCF Done:  E(RB3LYP) =  -706.588016236     A.U. after    9 cycles
 Optimization completed.
    -- Stationary point found.
 Normal termination of Gaussian 09 at Tue Aug 24 20:02:33 2021.

 ----------------------------------------------------------
 #P Geom=AllCheck Guess=TCheck SCRF=Check B3LYP/GTBas3 Freq
 ----------------------------------------------------------

 Structure from the checkpoint file:  "/public/home/users/caep010/.cache/gau_scr/Gau-117616.chk"
 ------
 SAQZAK
 ------
 Charge =  0 Multiplicity = 1

 SCF Done:  E(RB3LYP) =  -706.588016236     A.U. after    1 cycles

  Exact polarizability: 108.484   0.345  66.520  11.010   5.231  53.973
 Approx polarizability: 169.868   9.055 135.445  35.293  22.837 101.902

                      1                      2                      3
                      A                      A                      A
 Frequencies --     35.4224                49.5955                56.2804
 Red. masses --     13.9410                12.4877                11.5085
 Frc consts  --      0.0103                 0.0181                 0.0215
 IR Inten    --      0.6456                 1.8856                 2.0252

                      4                      5                      6
                      A                      A                      A
 Frequencies --     86.3696               193.4959               210.1222
 Red. masses --     11.8360                 5.4619                10.9101
 Frc consts  --      0.0520                 0.1205                 0.2838
 IR Inten    --      2.5056                 2.3922                 2.6141

                      7                      8                      9
                      A                      A                      A
 Frequencies --    342.0904               348.6605               372.3654
 Red. masses --     12.5199                 4.8242                 5.7552
 Frc consts  --      0.8632                 0.3455                 0.4702
 IR Inten    --      4.8991                 2.5049                 1.4596

                     10                     11                     12
                      A                      A                      A
 Frequencies --    465.8310               548.7321               594.9675
 Red. masses --     12.8946                 7.1059                 4.6112
 Frc consts  --      1.6486                 1.2606                 0.9617
 IR Inten    --      0.8182                 1.8522                 4.5008

                     13                     14                     15
                      A                      A                      A
 Frequencies --    667.1286               688.1724               721.6249
 Red. masses --     10.2786                 8.9646                 9.5686
 Frc consts  --      2.6953                 2.5014                 2.9358
 IR Inten    --     33.3264                 3.5137                 7.0319

                     16                     17                     18
                      A                      A                      A
 Frequencies --    814.0353               838.5288               863.0299
 Red. masses --     13.1526                 8.4980                 7.9769
 Frc consts  --      5.1351                 3.5205                 3.5006
 IR Inten    --      0.1970                12.0676               110.9332

                     19                     20                     21
                      A                      A                      A
 Frequencies --    896.1567               978.5584              1032.0438
 Red. masses --     11.1220                 2.8424                 8.9129
 Frc consts  --      5.2626                 1.6036                 5.5933
 IR Inten    --     18.8546                11.5294                18.4921

                     22                     23                     24
                      A                      A                      A
 Frequencies --   1090.3803              1169.9258              1277.1410
 Red. masses --     10.2244                 2.2738                 4.2202
 Frc consts  --      7.1622                 1.8336                 4.0556
 IR Inten    --      8.6992                 0.6114                10.2624

                     25                     26                     27
                      A                      A                      A
 Frequencies --   1328.1614              1340.8835              1370.8052
 Red. masses --      2.5432                 1.3906                 6.4362
 Frc consts  --      2.6433                 1.4731                 7.1258
 IR Inten    --     17.9264                19.8882                58.3893

                     28                     29                     30
                      A                      A                      A
 Frequencies --   1395.9379              1410.0998              1446.3716
 Red. masses --      8.7456                 4.8751                 1.2813
 Frc consts  --     10.0409                 5.7112                 1.5792
 IR Inten    --     88.6723               191.5842                15.4374

                     31                     32                     33
                      A                      A                      A
 Frequencies --   1447.8462              1519.6160              1670.0588
 Red. masses --     11.3834                10.9535                14.5705
 Frc consts  --     14.0594                14.9029                23.9435
 IR Inten    --     11.4072                22.1029               221.4582

                     34                     35                     36
                      A                      A                      A
 Frequencies --   1705.0972              3132.1185              3209.6407
 Red. masses --     12.7286                 1.0565                 1.1126
 Frc consts  --     21.8036                 6.1067                 6.7530
 IR Inten    --    259.5716                 3.4554                 5.4547

 - Thermochemistry -
 -------------------
 Temperature   298.150 Kelvin.  Pressure   1.00000 Atm.
 Atom     1 has atomic number  7 and mass  14.00307

 Molecular mass:   174.01375 amu.
 Principal axes and moments of inertia in atomic units:
                           1         2         3
     Eigenvalues --   682.539103623.576873878.32286
           X            0.99997  -0.00245   0.00690
           Y            0.00251   0.99996  -0.00894
           Z           -0.00688   0.00896   0.99994
 This molecule is an asymmetric top.
 Rotational symmetry number  1.
 Warning -- assumption of classical behavior for rotation
           may cause significant error
 Rotational temperatures (Kelvin)      0.12690     0.02390     0.02233
 Rotational constants (GHZ):           2.64416     0.49806     0.46534
 Zero-point vibrational energy     211244.3 (Joules/Mol)
                                   50.48861 (Kcal/Mol)
 Warning -- explicit consideration of  12 degrees of freedom as
           vibrations may cause significant error
 Vibrational temperatures:     50.96    71.36    80.97   124.27   278.40
          (Kelvin)            302.32   492.19   501.64   535.75   670.23
                              789.50   856.02   959.85   990.13  1038.26
                             1171.21  1206.45  1241.71  1289.37  1407.93
                             1484.88  1568.81  1683.26  1837.52  1910.93
                             1929.23  1972.28  2008.44  2028.82  2081.00
                             2083.13  2186.39  2402.84  2453.25  4506.41
                             4617.95

 Zero-point correction=                           0.080459 (Hartree/Particle)
 Thermal correction to Energy=                    0.090167
 Thermal correction to Enthalpy=                  0.091111
 Thermal correction to Gibbs Free Energy=         0.042548
 Sum of electronic and zero-point Energies=           -706.507558
 Sum of electronic and thermal Energies=              -706.497850
 Sum of electronic and thermal Enthalpies=            -706.496905
 Sum of electronic and thermal Free Energies=         -706.545469

                     E (Thermal)             CV                S
                      KCal/Mol        Cal/Mol-Kelvin    Cal/Mol-Kelvin
 Total                   56.580             32.883            102.210
 Electronic               0.000              0.000              0.000
 Translational            0.889              2.981             41.369
 Rotational               0.889              2.981             30.640
 Vibrational             54.803             26.921             30.201
 Vibration     1          0.594              1.982              5.500
 Vibration     2          0.595              1.978              4.833
 Vibration     3          0.596              1.975              4.584
 Vibration     4          0.601              1.959              3.741
 Vibration     5          0.635              1.849              2.194
 Vibration     6          0.642              1.825              2.043
 Vibration     7          0.721              1.591              1.202
 Vibration     8          0.726              1.578              1.172
 Vibration     9          0.744              1.529              1.070
 Vibration    10          0.823              1.326              0.749
 Vibration    11          0.904              1.142              0.547
 Vibration    12          0.953              1.042              0.458

 Normal termination of Gaussian 09 at Tue Aug 24 20:04:22 2021.

 -----------------------------------------------------------------
 #P Geom=AllCheck Guess=TCheck SCRF=Check CCSD(T,E4T,FrzG4)/GTBas1
 -----------------------------------------------------------------

 Structure from the checkpoint file:  "/public/home/users/caep010/.cache/gau_scr/Gau-117616.chk"
 ------
 SAQZAK
 ------
 Charge =  0 Multiplicity = 1

 SCF Done:  E(RHF) =  -702.687775190     A.U. after   15 cycles
 E2 =    -0.2003726662D+01 EUMP2 =    -0.70469150185241D+03
 CCSD(T)
 CCSD(T)= -0.70476502257D+03
 72\CCSD=-704.6737853\CCSD(T)=-704.7650226\RMSD=5.205e-09\PG=C01 [X(C2H
 Normal termination of Gaussian 09 at Tue Aug 24 20:56:03 2021.

 ---------------------------------------------------------
 #P Geom=AllCheck Guess=TCheck SCRF=Check MP4=FrzG4/GTBas2
 ---------------------------------------------------------

 Structure from the checkpoint file:  "/public/home/users/caep010/.cache/gau_scr/Gau-117616.chk"
 ------
 SAQZAK
 ------
 Charge =  0 Multiplicity = 1

 SCF Done:  E(RHF) =  -702.709526021     A.U. after   13 cycles
 E2 =    -0.2031179816D+01 EUMP2 =    -0.70474070583671D+03
 Normal termination of Gaussian 09 at Tue Aug 24 21:14:37 2021.

 ---------------------------------------------------------
 #P Geom=AllCheck Guess=TCheck SCRF=Check MP4=FrzG4/GTBas3
 ---------------------------------------------------------

 Structure from the checkpoint file:  "/public/home/users/caep010/.cache/gau_scr/Gau-117616.chk"
 ------
 SAQZAK
 ------
 Charge =  0 Multiplicity = 1

 SCF Done:  E(RHF) =  -702.759449217     A.U. after   12 cycles
 E2 =    -0.2367110190D+01 EUMP2 =    -0.70512655940669D+03
 Normal termination of Gaussian 09 at Tue Aug 24 23:38:28 2021.

 -----------------------------------------------------------
 #P Geom=AllCheck Guess=TCheck SCRF=Check MP2=Full/GTLargeXP
 -----------------------------------------------------------

 Structure from the checkpoint file:  "/public/home/users/caep010/.cache/gau_scr/Gau-117616.chk"
 ------
 SAQZAK
 ------
 Charge =  0 Multiplicity = 1

 SCF Done:  E(RHF) =  -702.944416892     A.U. after   14 cycles
 E2 =    -0.3054739467D+01 EUMP2 =    -0.70599915635855D+03
 Normal termination of Gaussian 09 at Tue Aug 24 23:50:34 2021.
 SCF Done:  E(RHF) =  -703.001055391     A.U. after   10 cycles
 Normal termination of Gaussian 09 at Tue Aug 24 23:54:31 2021.

                         Standard orientation:
 ---------------------------------------------------------------------
 Center     Atomic      Atomic             Coordinates (Angstroms)
 Number     Number       Type             X           Y           Z
 ---------------------------------------------------------------------
      1          7           0       -0.571494    0.478053   -0.533029
      2          6           0       -1.935989    0.266981   -0.888320
      3          1           0       -2.014869   -0.433226   -1.716796
      4          1           0       -2.409485    1.220685   -1.113031
      5          7           0       -2.731022   -0.346099    0.272017
      6          8           0       -3.892018   -0.578412   -0.000876
      7          7           0       -0.136966    1.631685    0.001527
      8          8           0       -2.156593   -0.533477    1.322124
      9          7           0        0.353606   -0.467063   -0.600358
     10          6           0        1.384026    0.174246   -0.086240
     11          7           0        2.701444   -0.440010    0.056659
     12          8           0        2.811412   -1.585008   -0.346515
     13          8           0        3.564379    0.252476    0.564752
     14          7           0        1.115675    1.446370    0.283371
 ---------------------------------------------------------------------

 SCF Done:  E(RHF) =  -703.012139332     A.U. after    7 cycles

 The electronic state is 1-A.
 Alpha  occ. eigenvalues --  -20.64865 -20.64265 -20.63557 -20.63329 -15.89270
 Alpha  occ. eigenvalues --  -15.89231 -15.76986 -15.73340 -15.70252 -15.67998
 Alpha  occ. eigenvalues --  -11.41155 -11.40563  -1.65380  -1.64502  -1.57128
 Alpha  occ. eigenvalues --   -1.45242  -1.43906  -1.34663  -1.27709  -1.14350
 Alpha  occ. eigenvalues --   -1.05761  -0.98294  -0.90016  -0.89688  -0.83270
 Alpha  occ. eigenvalues --   -0.81746  -0.79173  -0.77715  -0.76847  -0.75569
 Alpha  occ. eigenvalues --   -0.74528  -0.71350  -0.66808  -0.64768  -0.57140
 Alpha  occ. eigenvalues --   -0.54893  -0.54255  -0.53873  -0.52915  -0.52429
 Alpha  occ. eigenvalues --   -0.50632  -0.49546  -0.48026  -0.46953
 Alpha virt. eigenvalues --    0.01432   0.01936   0.03254   0.04060   0.04905
 Alpha virt. eigenvalues --    0.05486   0.05600   0.06377   0.06626   0.06807
 Alpha virt. eigenvalues --    0.08175   0.09462   0.09749   0.10163   0.10724

 Mulliken charges:
               1
     1  N    0.323890
     2  C   -0.223773
     3  H    0.274678
     4  H    0.273898
     5  N    0.554893
     6  O   -0.408866
     7  N   -0.082773
     8  O   -0.360978
     9  N   -0.259367
    10  C    0.371440
    11  N    0.504896
    12  O   -0.361623
    13  O   -0.353054
    14  N   -0.253261
 Sum of Mulliken charges =  -0.00000

 Dipole moment (field-independent basis, Debye):
    X=             -3.0050    Y=              1.5651    Z=             -3.6621  Tot=              4.9891
 Quadrupole moment (field-independent basis, Debye-Ang):
   XX=            -85.1125   YY=            -72.6553   ZZ=            -64.6052
   XY=             -3.1437   XZ=              5.3024   YZ=             -2.4899

 Normal termination of Gaussian 09 at Wed Aug 25 00:19:21 2021.
