 Gaussian 09, Revision E.01,
 Gaussian 09:  ES64L-G09RevE.01 30-Nov-2015

 ----------------
 #P G4 OPT=calcfc
 ----------------

 ------
 TUQHET
 ------
 Symbolic Z-matrix:
 Charge =  0 Multiplicity = 1

 SCF Done:  E(RB3LYP) =  -719.891817411     A.U. after   15 cycles
 SCF Done:  E(RB3LYP) =  -719.999454933     A.U. after   13 cycles
 SCF Done:  E(RB3LYP) =  -720.054223308     A.U. after   13 cycles
 SCF Done:  E(RB3LYP) =  -720.055334383     A.U. after   13 cycles
 SCF Done:  E(RB3LYP) =  -720.055355476     A.U. after   11 cycles
 SCF Done:  E(RB3LYP) =  -720.055356676     A.U. after    8 cycles
 Optimization completed.
    -- Stationary point found.
 Normal termination of Gaussian 09 at Thu Aug 26 00:19:54 2021.

 ----------------------------------------------------------
 #P Geom=AllCheck Guess=TCheck SCRF=Check B3LYP/GTBas3 Freq
 ----------------------------------------------------------

 Structure from the checkpoint file:  "/public/home/users/caep010/.cache/gau_scr/Gau-68368.chk"
 ------
 TUQHET
 ------
 Charge =  0 Multiplicity = 1

 SCF Done:  E(RB3LYP) =  -720.055356676     A.U. after    1 cycles

  Exact polarizability: 182.892  -6.424 138.346  -0.000  -0.001  53.078
 Approx polarizability: 308.336  -5.674 239.644   0.004  -0.009  86.953

                      1                      2                      3
                      A                      A                      A
 Frequencies --     60.7880                74.1148                82.3879
 Red. masses --     11.0953                10.5849                 4.0689
 Frc consts  --      0.0242                 0.0343                 0.0163
 IR Inten    --      0.0681                 1.3569                 0.5696

                      4                      5                      6
                      A                      A                      A
 Frequencies --    130.7567               159.4075               168.5493
 Red. masses --      3.2963                 8.2463                 4.7071
 Frc consts  --      0.0332                 0.1235                 0.0788
 IR Inten    --      1.6725                 1.7407                 3.0171

                      7                      8                      9
                      A                      A                      A
 Frequencies --    189.5160               207.6337               296.7807
 Red. masses --      1.1994                 3.7865                 6.2920
 Frc consts  --      0.0254                 0.0962                 0.3265
 IR Inten    --      0.1289                 2.4830                 0.2477

                     10                     11                     12
                      A                      A                      A
 Frequencies --    314.5099               346.8413               393.7900
 Red. masses --      5.9011                 8.6679                 7.6098
 Frc consts  --      0.3439                 0.6144                 0.6953
 IR Inten    --      1.1325                 2.8642                 2.5081

                     13                     14                     15
                      A                      A                      A
 Frequencies --    410.6499               443.5077               526.8268
 Red. masses --      6.8876                 3.2681                 8.2032
 Frc consts  --      0.6843                 0.3787                 1.3414
 IR Inten    --      8.6664                 3.0884                 6.3980

                     16                     17                     18
                      A                      A                      A
 Frequencies --    528.7111               596.5378               605.7254
 Red. masses --      2.8975                 1.2159                 4.2029
 Frc consts  --      0.4772                 0.2549                 0.9086
 IR Inten    --      6.3090                95.9213                 4.3389

                     19                     20                     21
                      A                      A                      A
 Frequencies --    630.6244               655.1146               671.8659
 Red. masses --      1.1080                 6.3450                 5.4257
 Frc consts  --      0.2596                 1.6044                 1.4430
 IR Inten    --     36.8640                 9.9578                61.4272

                     22                     23                     24
                      A                      A                      A
 Frequencies --    723.2573               773.5064               779.3145
 Red. masses --      4.3058                 4.2239                 6.1051
 Frc consts  --      1.3271                 1.4890                 2.1846
 IR Inten    --     25.6462                14.2723                10.4960

                     25                     26                     27
                      A                      A                      A
 Frequencies --    809.9358               821.2933               848.4126
 Red. masses --      3.5027                 7.4128                 2.0464
 Frc consts  --      1.3538                 2.9460                 0.8679
 IR Inten    --     16.8704                12.4684                24.6888

                     28                     29                     30
                      A                      A                      A
 Frequencies --    932.0996               971.3210               993.3656
 Red. masses --      6.9648                 1.3797                 1.4064
 Frc consts  --      3.5652                 0.7670                 0.8176
 IR Inten    --     15.0567                 1.6247                 2.1326

                     31                     32                     33
                      A                      A                      A
 Frequencies --   1064.9644              1101.5602              1142.1307
 Red. masses --      3.5304                 2.2989                 2.7120
 Frc consts  --      2.3591                 1.6436                 2.0844
 IR Inten    --     16.1901                28.8250               167.0235

                     34                     35                     36
                      A                      A                      A
 Frequencies --   1147.4382              1153.3652              1191.8977
 Red. masses --      1.6452                 1.2798                 1.5547
 Frc consts  --      1.2762                 1.0031                 1.3013
 IR Inten    --     19.3111                 0.0228               242.8399

                     37                     38                     39
                      A                      A                      A
 Frequencies --   1208.2207              1275.3842              1341.3692
 Red. masses --      1.9860                 1.5643                 2.1056
 Frc consts  --      1.7082                 1.4992                 2.2321
 IR Inten    --    113.7689                 8.5327                73.9281

                     40                     41                     42
                      A                      A                      A
 Frequencies --   1365.8639              1382.4315              1417.4685
 Red. masses --      2.8348                 8.5881                 5.0852
 Frc consts  --      3.1159                 9.6701                 6.0199
 IR Inten    --    128.2672               584.4029               100.2588

                     43                     44                     45
                      A                      A                      A
 Frequencies --   1452.2468              1468.5084              1486.2556
 Red. masses --      2.0295                 2.0828                 1.8822
 Frc consts  --      2.5218                 2.6463                 2.4496
 IR Inten    --     14.8590                16.7491                 6.3306

                     46                     47                     48
                      A                      A                      A
 Frequencies --   1486.4514              1518.9774              1567.9457
 Red. masses --      1.0399                 1.0975                 4.5641
 Frc consts  --      1.3538                 1.4919                 6.6110
 IR Inten    --      6.7668                13.3933                97.4166

                     49                     50                     51
                      A                      A                      A
 Frequencies --   1604.8598              1637.8878              1653.2179
 Red. masses --      3.9474                 4.4772                 7.5097
 Frc consts  --      5.9901                 7.0766                12.0929
 IR Inten    --     31.9514               346.7807               215.6627

                     52                     53                     54
                      A                      A                      A
 Frequencies --   1763.5593              3012.0760              3059.9881
 Red. masses --      7.5712                 1.0381                 1.1032
 Frc consts  --     13.8738                 5.5489                 6.0864
 IR Inten    --    365.8226                68.5139                27.1114

                     55                     56                     57
                      A                      A                      A
 Frequencies --   3134.8314              3216.9266              3234.3719
 Red. masses --      1.0973                 1.0869                 1.0937
 Frc consts  --      6.3532                 6.6273                 6.7411
 IR Inten    --     11.6913                 3.8559                 2.6758

                     58                     59                     60
                      A                      A                      A
 Frequencies --   3253.1917              3516.5273              3763.6774
 Red. masses --      1.0901                 1.0789                 1.0643
 Frc consts  --      6.7973                 7.8608                 8.8824
 IR Inten    --      7.4209               205.5528               102.9382

 - Thermochemistry -
 -------------------
 Temperature   298.150 Kelvin.  Pressure   1.00000 Atm.
 Atom     1 has atomic number  8 and mass  15.99491

 Molecular mass:   196.04841 amu.
 Principal axes and moments of inertia in atomic units:
                           1         2         3
     Eigenvalues --  1693.672463723.947465406.25353
           X            0.99940  -0.03466  -0.00000
           Y            0.03466   0.99940   0.00001
           Z            0.00000  -0.00001   1.00000
 This molecule is an asymmetric top.
 Rotational symmetry number  1.
 Warning -- assumption of classical behavior for rotation
           may cause significant error
 Rotational temperatures (Kelvin)      0.05114     0.02326     0.01602
 Rotational constants (GHZ):           1.06558     0.48463     0.33382
 Zero-point vibrational energy     429284.4 (Joules/Mol)
                                  102.60142 (Kcal/Mol)
 Warning -- explicit consideration of  18 degrees of freedom as
           vibrations may cause significant error
 Vibrational temperatures:     87.46   106.63   118.54   188.13   229.35
          (Kelvin)            242.50   272.67   298.74   427.00   452.51
                              499.03   566.58   590.83   638.11   757.99
                              760.70   858.28   871.50   907.33   942.56
                              966.66  1040.60  1112.90  1121.26  1165.32
                             1181.66  1220.67  1341.08  1397.51  1429.23
                             1532.24  1584.90  1643.27  1650.91  1659.43
                             1714.87  1738.36  1834.99  1929.93  1965.17
                             1989.01  2039.42  2089.46  2112.85  2138.39
                             2138.67  2185.47  2255.92  2309.03  2356.55
                             2378.61  2537.37  4333.70  4402.63  4510.32
                             4628.43  4653.53  4680.61  5059.49  5415.09

 Zero-point correction=                           0.163506 (Hartree/Particle)
 Thermal correction to Energy=                    0.175800
 Thermal correction to Enthalpy=                  0.176744
 Thermal correction to Gibbs Free Energy=         0.124369
 Sum of electronic and zero-point Energies=           -719.891851
 Sum of electronic and thermal Energies=              -719.879556
 Sum of electronic and thermal Enthalpies=            -719.878612
 Sum of electronic and thermal Free Energies=         -719.930987

                     E (Thermal)             CV                S
                      KCal/Mol        Cal/Mol-Kelvin    Cal/Mol-Kelvin
 Total                  110.316             45.877            110.232
 Electronic               0.000              0.000              0.000
 Translational            0.889              2.981             41.725
 Rotational               0.889              2.981             31.900
 Vibrational            108.539             39.915             36.607
 Vibration     1          0.597              1.973              4.431
 Vibration     2          0.599              1.966              4.041
 Vibration     3          0.600              1.961              3.833
 Vibration     4          0.612              1.923              2.935
 Vibration     5          0.621              1.892              2.557
 Vibration     6          0.625              1.881              2.452
 Vibration     7          0.633              1.854              2.233
 Vibration     8          0.641              1.829              2.064
 Vibration     9          0.690              1.680              1.435
 Vibration    10          0.702              1.646              1.338
 Vibration    11          0.725              1.582              1.181
 Vibration    12          0.761              1.483              0.986
 Vibration    13          0.775              1.447              0.924
 Vibration    14          0.803              1.375              0.816
 Vibration    15          0.882              1.191              0.594
 Vibration    16          0.884              1.186              0.590
 Vibration    17          0.954              1.039              0.456
 Vibration    18          0.964              1.020              0.440

 Optimization completed.
    -- Stationary point found.
 Normal termination of Gaussian 09 at Thu Aug 26 00:23:35 2021.

 -----------------------------------------------------------------
 #P Geom=AllCheck Guess=TCheck SCRF=Check CCSD(T,E4T,FrzG4)/GTBas1
 -----------------------------------------------------------------

 Structure from the checkpoint file:  "/public/home/users/caep010/.cache/gau_scr/Gau-68368.chk"
 ------
 TUQHET
 ------
 Charge =  0 Multiplicity = 1

 SCF Done:  E(RHF) =  -715.854157358     A.U. after   15 cycles
 E2 =    -0.2067451681D+01 EUMP2 =    -0.71792160903881D+03
 CCSD(T)
 CCSD(T)= -0.71804675594D+03
 9583299\CCSD(T)=-718.0467559\RMSD=4.610e-09\PG=C01 [X(C8H8N2O4)]\\@
 Normal termination of Gaussian 09 at Thu Aug 26 02:50:46 2021.

 ---------------------------------------------------------
 #P Geom=AllCheck Guess=TCheck SCRF=Check MP4=FrzG4/GTBas2
 ---------------------------------------------------------

 Structure from the checkpoint file:  "/public/home/users/caep010/.cache/gau_scr/Gau-68368.chk"
 ------
 TUQHET
 ------
 Charge =  0 Multiplicity = 1

 SCF Done:  E(RHF) =  -715.873849503     A.U. after   16 cycles
 E2 =    -0.2095347220D+01 EUMP2 =    -0.71796919672274D+03
 Normal termination of Gaussian 09 at Thu Aug 26 04:00:37 2021.

 ---------------------------------------------------------
 #P Geom=AllCheck Guess=TCheck SCRF=Check MP4=FrzG4/GTBas3
 ---------------------------------------------------------

 Structure from the checkpoint file:  "/public/home/users/caep010/.cache/gau_scr/Gau-68368.chk"
 ------
 TUQHET
 ------
 Charge =  0 Multiplicity = 1

 SCF Done:  E(RHF) =  -715.929720603     A.U. after   12 cycles
 E2 =    -0.2484577245D+01 EUMP2 =    -0.71841429784819D+03
 Normal termination of Gaussian 09 at Thu Aug 26 11:27:41 2021.

 -----------------------------------------------------------
 #P Geom=AllCheck Guess=TCheck SCRF=Check MP2=Full/GTLargeXP
 -----------------------------------------------------------

 Structure from the checkpoint file:  "/public/home/users/caep010/.cache/gau_scr/Gau-68368.chk"
 ------
 TUQHET
 ------
 Charge =  0 Multiplicity = 1

 SCF Done:  E(RHF) =  -716.108262036     A.U. after   14 cycles
 E2 =    -0.3258060267D+01 EUMP2 =    -0.71936632230280D+03
 Normal termination of Gaussian 09 at Thu Aug 26 11:45:19 2021.
 SCF Done:  E(RHF) =  -716.165302315     A.U. after    9 cycles
 Normal termination of Gaussian 09 at Thu Aug 26 11:53:21 2021.

                         Standard orientation:
 ---------------------------------------------------------------------
 Center     Atomic      Atomic             Coordinates (Angstroms)
 Number     Number       Type             X           Y           Z
 ---------------------------------------------------------------------
      1          8           0        2.791338    1.656632    0.000616
      2          6           0        1.572077    1.722150    0.000111
      3          6           0        0.651758    0.574535    0.000119
      4          6           0        1.162655   -0.767333    0.000026
      5          6           0        0.225708   -1.833459    0.000004
      6          7           0        2.489641   -1.006310   -0.000052
      7          1           0        3.077371   -0.180833    0.000529
      8          6           0        3.091307   -2.320531   -0.000358
      9          1           0        2.811705   -2.901005    0.887759
     10          1           0        4.176012   -2.202403    0.000215
     11          6           0       -1.129190   -1.594900    0.000057
     12          1           0        0.584237   -2.854116   -0.000089
     13          8           0        0.946583    2.917024   -0.000491
     14          1           0        1.646754    3.586057   -0.000362
     15          6           0       -1.604541   -0.279386    0.000102
     16          7           0       -3.039627   -0.032328    0.000005
     17          8           0       -3.422687    1.133799   -0.000371
     18          6           0       -0.725943    0.789750    0.000120
     19          1           0       -1.842804   -2.408248    0.000071
     20          1           0       -1.119608    1.795910    0.000155
     21          8           0       -3.785142   -1.008670    0.000287
     22          1           0        2.812513   -2.900131   -0.889364
 ---------------------------------------------------------------------

 SCF Done:  E(RHF) =  -716.176481621     A.U. after    7 cycles

 The electronic state is 1-A.
 Alpha  occ. eigenvalues --  -20.62583 -20.58972 -20.58945 -20.56371 -15.84583
 Alpha  occ. eigenvalues --  -15.59706 -11.41127 -11.33766 -11.29272 -11.28998
 Alpha  occ. eigenvalues --  -11.28718 -11.28364 -11.26883 -11.25566  -1.59405
 Alpha  occ. eigenvalues --   -1.48450  -1.38752  -1.37796  -1.28511  -1.19187
 Alpha  occ. eigenvalues --   -1.09123  -1.06971  -0.98796  -0.93216  -0.91899
 Alpha  occ. eigenvalues --   -0.84972  -0.81715  -0.77563  -0.74614  -0.73282
 Alpha  occ. eigenvalues --   -0.71767  -0.71222  -0.70499  -0.68725  -0.65806
 Alpha  occ. eigenvalues --   -0.64975  -0.63568  -0.62345  -0.61097  -0.59797
 Alpha  occ. eigenvalues --   -0.56872  -0.54906  -0.54673  -0.50694  -0.49201
 Alpha  occ. eigenvalues --   -0.48639  -0.47170  -0.46353  -0.44945  -0.38680
 Alpha  occ. eigenvalues --   -0.32496
 Alpha virt. eigenvalues --    0.02560   0.03390   0.03968   0.04140   0.04747
 Alpha virt. eigenvalues --    0.05103   0.05720   0.05767   0.06285   0.06317
 Alpha virt. eigenvalues --    0.07525   0.07758   0.08105   0.08567   0.09219

 Mulliken charges:
               1
     1  O   -0.671547
     2  C    0.561423
     3  C    0.140638
     4  C    0.287745
     5  C   -0.255427
     6  N   -0.426400
     7  H    0.397304
     8  C   -0.524288
     9  H    0.180506
    10  H    0.203079
    11  C   -0.190762
    12  H    0.214126
    13  O   -0.560354
    14  H    0.427046
    15  C    0.033889
    16  N    0.548740
    17  O   -0.456186
    18  C   -0.180926
    19  H    0.267529
    20  H    0.286976
    21  O   -0.463646
    22  H    0.180536
 Sum of Mulliken charges =  -0.00000

 Dipole moment (field-independent basis, Debye):
    X=              5.7241    Y=             -1.8537    Z=             -0.0001  Tot=              6.0168
 Quadrupole moment (field-independent basis, Debye-Ang):
   XX=           -100.6892   YY=            -68.4349   ZZ=            -81.7975
   XY=             -2.8598   XZ=             -0.0027   YZ=              0.0012

 Normal termination of Gaussian 09 at Thu Aug 26 12:45:55 2021.
