 Gaussian 09, Revision E.01,
 Gaussian 09:  ES64L-G09RevE.01 30-Nov-2015

 ----------------
 #P G4 OPT=calcfc
 ----------------

 ------
 TAFTOJ
 ------
 Symbolic Z-matrix:
 Charge =  0 Multiplicity = 1

 SCF Done:  E(RB3LYP) =  -771.857022080     A.U. after   16 cycles
 SCF Done:  E(RB3LYP) =  -771.862664336     A.U. after   14 cycles
 SCF Done:  E(RB3LYP) =  -771.861897194     A.U. after   17 cycles
 SCF Done:  E(RB3LYP) =  -771.856307972     A.U. after   15 cycles
 SCF Done:  E(RB3LYP) =  -771.862746111     A.U. after   10 cycles
 SCF Done:  E(RB3LYP) =  -771.862782228     A.U. after   14 cycles
 SCF Done:  E(RB3LYP) =  -771.862792187     A.U. after   14 cycles
 SCF Done:  E(RB3LYP) =  -771.862793718     A.U. after   12 cycles
 SCF Done:  E(RB3LYP) =  -771.862793813     A.U. after   10 cycles
 Optimization completed.
    -- Stationary point found.
 Normal termination of Gaussian 09 at Fri Aug 27 12:15:03 2021.

 ----------------------------------------------------------
 #P Geom=AllCheck Guess=TCheck SCRF=Check B3LYP/GTBas3 Freq
 ----------------------------------------------------------

 Structure from the checkpoint file:  "/public/home/users/caep010/.cache/gau_scr/Gau-128611.chk"
 ------
 TAFTOJ
 ------
 Charge =  0 Multiplicity = 1

 SCF Done:  E(RB3LYP) =  -771.862793813     A.U. after    1 cycles

  Exact polarizability: 153.561   4.933 121.500   1.921   1.827  51.209
 Approx polarizability: 252.159   9.735 228.327  10.494   8.836  86.748

                      1                      2                      3
                      A                      A                      A
 Frequencies --     37.4492                55.8269                83.5856
 Red. masses --     13.7240                13.1784                 5.4336
 Frc consts  --      0.0113                 0.0242                 0.0224
 IR Inten    --      0.4193                 0.1801                 0.2154

                      4                      5                      6
                      A                      A                      A
 Frequencies --    122.5125               159.4348               166.3082
 Red. masses --      3.5353                10.7520                 4.2085
 Frc consts  --      0.0313                 0.1610                 0.0686
 IR Inten    --      0.1345                 3.5729                10.5131

                      7                      8                      9
                      A                      A                      A
 Frequencies --    181.0459               190.2647               298.4683
 Red. masses --      1.2436                 4.2138                 6.2167
 Frc consts  --      0.0240                 0.0899                 0.3263
 IR Inten    --      1.6794                 1.9056                 4.9893

                     10                     11                     12
                      A                      A                      A
 Frequencies --    323.7389               340.0642               376.1785
 Red. masses --      9.6537                11.9951                 9.9272
 Frc consts  --      0.5961                 0.8173                 0.8277
 IR Inten    --      0.6647                 1.1105                 1.1425

                     13                     14                     15
                      A                      A                      A
 Frequencies --    416.4303               470.5149               529.1418
 Red. masses --      6.0455                 5.4260                 8.0809
 Frc consts  --      0.6177                 0.7077                 1.3331
 IR Inten    --      3.9721                 3.6073                 2.1350

                     16                     17                     18
                      A                      A                      A
 Frequencies --    546.2286               629.4592               671.3736
 Red. masses --      3.4343                 7.4241                 6.5307
 Frc consts  --      0.6037                 1.7331                 1.7344
 IR Inten    --      2.0169                 8.0874                 2.6380

                     19                     20                     21
                      A                      A                      A
 Frequencies --    714.4877               747.3903               785.4110
 Red. masses --      8.5185                11.5304                 7.6025
 Frc consts  --      2.5621                 3.7948                 2.7631
 IR Inten    --     39.7833                 9.9712                12.6294

                     22                     23                     24
                      A                      A                      A
 Frequencies --    818.5228               829.1214               846.9732
 Red. masses --      8.0750                 6.4966                14.9669
 Frc consts  --      3.1875                 2.6313                 6.3259
 IR Inten    --     19.3764                11.0469                31.6738

                     25                     26                     27
                      A                      A                      A
 Frequencies --    957.1017               999.9072              1003.3069
 Red. masses --      9.1223                 1.3849                 1.5842
 Frc consts  --      4.9235                 0.8158                 0.9396
 IR Inten    --     32.0732                 1.2457                10.0941

                     28                     29                     30
                      A                      A                      A
 Frequencies --   1027.4847              1085.3869              1159.4187
 Red. masses --      8.1906                 1.9116                 5.3138
 Frc consts  --      5.0947                 1.3269                 4.2086
 IR Inten    --     64.4963                66.4383                17.1848

                     31                     32                     33
                      A                      A                      A
 Frequencies --   1173.6181              1196.9399              1251.5276
 Red. masses --      1.2686                 1.4128                 1.6150
 Frc consts  --      1.0295                 1.1926                 1.4904
 IR Inten    --      1.0459                17.2212                50.1369

                     34                     35                     36
                      A                      A                      A
 Frequencies --   1333.8928              1354.6671              1382.6317
 Red. masses --      8.3086                 3.1383                12.6359
 Frc consts  --      8.7101                 3.3932                14.2321
 IR Inten    --    109.9265                99.1775               450.4320

                     37                     38                     39
                      A                      A                      A
 Frequencies --   1396.6660              1434.0742              1449.8425
 Red. masses --      9.3555                 3.9947                 1.7980
 Frc consts  --     10.7523                 4.8403                 2.2268
 IR Inten    --    226.8085                76.8303                26.0612

                     40                     41                     42
                      A                      A                      A
 Frequencies --   1482.3716              1491.1512              1524.2757
 Red. masses --      1.0477                 1.0652                 2.3376
 Frc consts  --      1.3565                 1.3955                 3.1999
 IR Inten    --      8.0554                23.1948               103.9765

                     43                     44                     45
                      A                      A                      A
 Frequencies --   1585.2515              1620.7309              1650.6531
 Red. masses --      9.9580                 8.8549                12.1393
 Frc consts  --     14.7441                13.7043                19.4874
 IR Inten    --      3.3362                20.7526               222.9357

                     46                     47                     48
                      A                      A                      A
 Frequencies --   1665.7727              3060.6295              3141.5219
 Red. masses --     11.1635                 1.0292                 1.1063
 Frc consts  --     18.2508                 5.6805                 6.4327
 IR Inten    --    495.8552                31.3790                12.7141

                     49                     50                     51
                      A                      A                      A
 Frequencies --   3172.6478              3209.4953              3252.3991
 Red. masses --      1.1067                 1.0917                 1.0913
 Frc consts  --      6.5635                 6.6253                 6.8017
 IR Inten    --     10.3554                 0.7101                18.3402

 - Thermochemistry -
 -------------------
 Temperature   298.150 Kelvin.  Pressure   1.00000 Atm.
 Atom     1 has atomic number  7 and mass  14.00307

 Molecular mass:   199.02292 amu.
 Principal axes and moments of inertia in atomic units:
                           1         2         3
     Eigenvalues --  1648.839813580.677305176.56308
           X            0.99921   0.03961  -0.00117
           Y           -0.03961   0.99921  -0.00179
           Z            0.00110   0.00183   1.00000
 This molecule is an asymmetric top.
 Rotational symmetry number  1.
 Warning -- assumption of classical behavior for rotation
           may cause significant error
 Rotational temperatures (Kelvin)      0.05253     0.02419     0.01673
 Rotational constants (GHZ):           1.09455     0.50402     0.34864
 Zero-point vibrational energy     331385.3 (Joules/Mol)
                                   79.20299 (Kcal/Mol)
 Warning -- explicit consideration of  16 degrees of freedom as
           vibrations may cause significant error
 Vibrational temperatures:     53.88    80.32   120.26   176.27   229.39
          (Kelvin)            239.28   260.48   273.75   429.43   465.79
                              489.28   541.24   599.15   676.97   761.32
                              785.90   905.65   965.96  1027.99  1075.33
                             1130.03  1177.67  1192.92  1218.60  1377.05
                             1438.64  1443.53  1478.32  1561.63  1668.14
                             1688.57  1722.13  1800.67  1919.17  1949.06
                             1989.30  2009.49  2063.31  2086.00  2132.80
                             2145.43  2193.09  2280.82  2331.87  2374.92
                             2396.67  4403.56  4519.94  4564.73  4617.74
                             4679.47

 Zero-point correction=                           0.126218 (Hartree/Particle)
 Thermal correction to Energy=                    0.138140
 Thermal correction to Enthalpy=                  0.139084
 Thermal correction to Gibbs Free Energy=         0.086532
 Sum of electronic and zero-point Energies=           -771.736576
 Sum of electronic and thermal Energies=              -771.724654
 Sum of electronic and thermal Enthalpies=            -771.723710
 Sum of electronic and thermal Free Energies=         -771.776262

                     E (Thermal)             CV                S
                      KCal/Mol        Cal/Mol-Kelvin    Cal/Mol-Kelvin
 Total                   86.684             42.411            110.606
 Electronic               0.000              0.000              0.000
 Translational            0.889              2.981             41.770
 Rotational               0.889              2.981             31.792
 Vibrational             84.907             36.450             37.045
 Vibration     1          0.594              1.982              5.390
 Vibration     2          0.596              1.975              4.600
 Vibration     3          0.600              1.960              3.805
 Vibration     4          0.610              1.930              3.060
 Vibration     5          0.621              1.892              2.556
 Vibration     6          0.624              1.884              2.477
 Vibration     7          0.630              1.865              2.318
 Vibration     8          0.634              1.853              2.225
 Vibration     9          0.692              1.677              1.425
 Vibration    10          0.708              1.628              1.291
 Vibration    11          0.720              1.595              1.212
 Vibration    12          0.747              1.521              1.054
 Vibration    13          0.780              1.435              0.904
 Vibration    14          0.828              1.315              0.736
 Vibration    15          0.884              1.186              0.589
 Vibration    16          0.901              1.148              0.552

 Normal termination of Gaussian 09 at Fri Aug 27 12:18:25 2021.

 -----------------------------------------------------------------
 #P Geom=AllCheck Guess=TCheck SCRF=Check CCSD(T,E4T,FrzG4)/GTBas1
 -----------------------------------------------------------------

 Structure from the checkpoint file:  "/public/home/users/caep010/.cache/gau_scr/Gau-128611.chk"
 ------
 TAFTOJ
 ------
 Charge =  0 Multiplicity = 1

 SCF Done:  E(RHF) =  -767.506651140     A.U. after   16 cycles
 E2 =    -0.2174613699D+01 EUMP2 =    -0.76968126483850D+03
 CCSD(T)
 CCSD(T)= -0.76979058865D+03
 CSD=-769.6926144\CCSD(T)=-769.7905886\RMSD=8.910e-09\PG=C01 [X(C6H5N3O
 Normal termination of Gaussian 09 at Fri Aug 27 14:34:50 2021.

 ---------------------------------------------------------
 #P Geom=AllCheck Guess=TCheck SCRF=Check MP4=FrzG4/GTBas2
 ---------------------------------------------------------

 Structure from the checkpoint file:  "/public/home/users/caep010/.cache/gau_scr/Gau-128611.chk"
 ------
 TAFTOJ
 ------
 Charge =  0 Multiplicity = 1

 SCF Done:  E(RHF) =  -767.527445291     A.U. after   18 cycles
 E2 =    -0.2204217561D+01 EUMP2 =    -0.76973166285227D+03
 Normal termination of Gaussian 09 at Fri Aug 27 15:40:20 2021.

 ---------------------------------------------------------
 #P Geom=AllCheck Guess=TCheck SCRF=Check MP4=FrzG4/GTBas3
 ---------------------------------------------------------

 Structure from the checkpoint file:  "/public/home/users/caep010/.cache/gau_scr/Gau-128611.chk"
 ------
 TAFTOJ
 ------
 Charge =  0 Multiplicity = 1

 SCF Done:  E(RHF) =  -767.583907614     A.U. after   12 cycles
 E2 =    -0.2597044809D+01 EUMP2 =    -0.77018095242340D+03
 Normal termination of Gaussian 09 at Fri Aug 27 21:56:58 2021.

 -----------------------------------------------------------
 #P Geom=AllCheck Guess=TCheck SCRF=Check MP2=Full/GTLargeXP
 -----------------------------------------------------------

 Structure from the checkpoint file:  "/public/home/users/caep010/.cache/gau_scr/Gau-128611.chk"
 ------
 TAFTOJ
 ------
 Charge =  0 Multiplicity = 1

 SCF Done:  E(RHF) =  -767.779862055     A.U. after   15 cycles
 E2 =    -0.3383841936D+01 EUMP2 =    -0.77116370399061D+03
 Normal termination of Gaussian 09 at Fri Aug 27 22:08:25 2021.
 SCF Done:  E(RHF) =  -767.841081039     A.U. after   11 cycles
 Normal termination of Gaussian 09 at Fri Aug 27 22:16:31 2021.

                         Standard orientation:
 ---------------------------------------------------------------------
 Center     Atomic      Atomic             Coordinates (Angstroms)
 Number     Number       Type             X           Y           Z
 ---------------------------------------------------------------------
      1          7           0       -0.276831   -1.757609   -0.005075
      2          6           0        1.029565   -1.515630   -0.024911
      3          6           0       -1.134121   -0.735431    0.008609
      4          8           0       -2.428388   -0.986184    0.066272
      5          6           0       -2.849644   -2.359737    0.109670
      6          1           0       -2.449566   -2.858536    0.994915
      7          6           0        1.545596   -0.225469   -0.012641
      8          6           0        0.679817    0.860008    0.005825
      9          1           0        1.050543    1.875385    0.021690
     10          7           0        2.992530   -0.010590   -0.023294
     11          8           0        3.389178    1.146711   -0.022201
     12          8           0        3.706254   -1.005655   -0.032807
     13          1           0        1.700064   -2.367189   -0.048820
     14          6           0       -0.676527    0.609746   -0.001296
     15          7           0       -1.583534    1.770092   -0.021708
     16          8           0       -1.121017    2.832010    0.376910
     17          8           0       -2.713663    1.605970   -0.450043
     18          1           0       -3.937143   -2.314114    0.149164
     19          1           0       -2.516085   -2.892541   -0.782994
 ---------------------------------------------------------------------

 SCF Done:  E(RHF) =  -767.853157144     A.U. after    8 cycles

 The electronic state is 1-A.
 Alpha  occ. eigenvalues --  -20.63853 -20.62032 -20.61907 -20.61774 -20.61282
 Alpha  occ. eigenvalues --  -15.87646 -15.87301 -15.61559 -11.41823 -11.35374
 Alpha  occ. eigenvalues --  -11.33992 -11.33336 -11.33124 -11.31275  -1.62623
 Alpha  occ. eigenvalues --   -1.62317  -1.48477  -1.42058  -1.41658  -1.32022
 Alpha  occ. eigenvalues --   -1.18826  -1.14567  -1.02591  -1.00416  -0.97630
 Alpha  occ. eigenvalues --   -0.89827  -0.86097  -0.81583  -0.78601  -0.77399
 Alpha  occ. eigenvalues --   -0.76723  -0.74593  -0.74157  -0.73889  -0.72295
 Alpha  occ. eigenvalues --   -0.70175  -0.67289  -0.64906  -0.62060  -0.60224
 Alpha  occ. eigenvalues --   -0.56426  -0.53818  -0.53197  -0.51911  -0.51554
 Alpha  occ. eigenvalues --   -0.50674  -0.48005  -0.47636  -0.46819  -0.45507
 Alpha  occ. eigenvalues --   -0.39465
 Alpha virt. eigenvalues --    0.01833   0.02296   0.02502   0.03556   0.04096
 Alpha virt. eigenvalues --    0.04447   0.05652   0.05991   0.06522   0.06654
 Alpha virt. eigenvalues --    0.07470   0.08039   0.08561   0.08638   0.08935

 Mulliken charges:
               1
     1  N   -0.516150
     2  C   -0.045631
     3  C    0.432407
     4  O   -0.272668
     5  C   -0.402749
     6  H    0.199269
     7  C    0.147495
     8  C   -0.055924
     9  H    0.308706
    10  N    0.532584
    11  O   -0.435330
    12  O   -0.429989
    13  H    0.281243
    14  C    0.153251
    15  N    0.517620
    16  O   -0.437272
    17  O   -0.389510
    18  H    0.212791
    19  H    0.199857
 Sum of Mulliken charges =  -0.00000

 Dipole moment (field-independent basis, Debye):
    X=             -2.0539    Y=             -4.5973    Z=              0.1012  Tot=              5.0362
 Quadrupole moment (field-independent basis, Debye-Ang):
   XX=            -97.7249   YY=            -82.8277   ZZ=            -77.0888
   XY=             10.5496   XZ=             -1.4121   YZ=             -1.0538

 Normal termination of Gaussian 09 at Fri Aug 27 23:07:21 2021.
