 Gaussian 09, Revision E.01,
 Gaussian 09:  ES64L-G09RevE.01 30-Nov-2015

 ----------------
 #P G4 OPT=calcfc
 ----------------

 ------
 TIXQUM
 ------
 Symbolic Z-matrix:
 Charge =  0 Multiplicity = 1

 SCF Done:  E(RB3LYP) =  -531.342330877     A.U. after   15 cycles
 SCF Done:  E(RB3LYP) =  -531.429628237     A.U. after   13 cycles
 SCF Done:  E(RB3LYP) =  -531.461718573     A.U. after   14 cycles
 SCF Done:  E(RB3LYP) =  -531.464853549     A.U. after   12 cycles
 SCF Done:  E(RB3LYP) =  -531.464530656     A.U. after   13 cycles
 SCF Done:  E(RB3LYP) =  -531.465922869     A.U. after   11 cycles
 SCF Done:  E(RB3LYP) =  -531.464817239     A.U. after   14 cycles
 SCF Done:  E(RB3LYP) =  -531.465993400     A.U. after    9 cycles
 SCF Done:  E(RB3LYP) =  -531.464980557     A.U. after   13 cycles
 SCF Done:  E(RB3LYP) =  -531.466237992     A.U. after   10 cycles
 SCF Done:  E(RB3LYP) =  -531.466267181     A.U. after   10 cycles
 SCF Done:  E(RB3LYP) =  -531.466270060     A.U. after    8 cycles
 Optimization completed.
    -- Stationary point found.
 Normal termination of Gaussian 09 at Wed Aug 25 09:59:15 2021.

 ----------------------------------------------------------
 #P Geom=AllCheck Guess=TCheck SCRF=Check B3LYP/GTBas3 Freq
 ----------------------------------------------------------

 Structure from the checkpoint file:  "/public/home/users/caep010/.cache/gau_scr/Gau-145002.chk"
 ------
 TIXQUM
 ------
 Charge =  0 Multiplicity = 1

 SCF Done:  E(RB3LYP) =  -531.466270060     A.U. after    1 cycles

  Exact polarizability: 140.537  -1.725 110.507  -0.567   0.140  45.715
 Approx polarizability: 215.042  -8.455 212.853  -0.233  -1.013  74.371

                      1                      2                      3
                      A                      A                      A
 Frequencies --     59.8488               109.5088               179.6580
 Red. masses --      9.9607                 4.3575                 1.0885
 Frc consts  --      0.0210                 0.0308                 0.0207
 IR Inten    --      0.0998                 0.4450                 1.8219

                      4                      5                      6
                      A                      A                      A
 Frequencies --    209.9031               212.1004               289.6679
 Red. masses --      5.2579                 3.6629                 2.2445
 Frc consts  --      0.1365                 0.0971                 0.1110
 IR Inten    --      0.2525                 1.2935                 7.2059

                      7                      8                      9
                      A                      A                      A
 Frequencies --    309.2959               352.1975               361.5433
 Red. masses --      2.7842                 1.3015                 7.8516
 Frc consts  --      0.1569                 0.0951                 0.6047
 IR Inten    --      2.3724                22.2883                 0.6940

                     10                     11                     12
                      A                      A                      A
 Frequencies --    416.8444               453.6735               547.0684
 Red. masses --      4.6328                 2.9488                 4.3891
 Frc consts  --      0.4743                 0.3576                 0.7739
 IR Inten    --      0.3577                 7.4038                47.4804

                     13                     14                     15
                      A                      A                      A
 Frequencies --    557.8283               563.2766               606.6218
 Red. masses --      3.6554                 2.6568                 2.1561
 Frc consts  --      0.6702                 0.4967                 0.4675
 IR Inten    --     23.6325                59.1813               154.6643

                     16                     17                     18
                      A                      A                      A
 Frequencies --    650.9014               734.6877               765.5189
 Red. masses --      6.0935                 3.3486                 4.1967
 Frc consts  --      1.5211                 1.0649                 1.4490
 IR Inten    --      4.1376                 6.1794                 0.4907

                     19                     20                     21
                      A                      A                      A
 Frequencies --    770.0434               831.9182               844.2576
 Red. masses --      3.0813                 8.6498                 1.5431
 Frc consts  --      1.0765                 3.5271                 0.6480
 IR Inten    --     32.1958                32.8678                 1.8002

                     22                     23                     24
                      A                      A                      A
 Frequencies --    908.8818               954.8083               956.6741
 Red. masses --      1.6330                 1.3331                 3.3917
 Frc consts  --      0.7948                 0.7161                 1.8289
 IR Inten    --     17.7941                 1.7617                15.1872

                     25                     26                     27
                      A                      A                      A
 Frequencies --   1013.4507              1059.4731              1082.2421
 Red. masses --      1.6834                 1.5356                 1.8079
 Frc consts  --      1.0187                 1.0155                 1.2476
 IR Inten    --      7.0714                 1.8392                 3.9678

                     28                     29                     30
                      A                      A                      A
 Frequencies --   1117.1848              1163.1435              1216.4827
 Red. masses --      1.5382                 1.2935                 3.4459
 Frc consts  --      1.1312                 1.0311                 3.0044
 IR Inten    --     34.5501                 3.9302                 0.5019

                     31                     32                     33
                      A                      A                      A
 Frequencies --   1294.5487              1313.6913              1375.2258
 Red. masses --      1.8932                 1.9107                 5.5091
 Frc consts  --      1.8694                 1.9428                 6.1387
 IR Inten    --     23.9321                30.3538                16.7010

                     34                     35                     36
                      A                      A                      A
 Frequencies --   1392.7597              1412.1553              1455.5072
 Red. masses --     11.9506                 1.3164                 2.7673
 Frc consts  --     13.6581                 1.5466                 3.4541
 IR Inten    --    319.0041                11.0218                18.3771

                     37                     38                     39
                      A                      A                      A
 Frequencies --   1482.4906              1503.0572              1527.9453
 Red. masses --      1.0440                 1.2277                 2.9012
 Frc consts  --      1.3519                 1.6341                 3.9906
 IR Inten    --      6.7649                 5.7416                48.8437

                     40                     41                     42
                      A                      A                      A
 Frequencies --   1608.0197              1632.9568              1653.8312
 Red. masses --      9.1888                 4.7719                 1.8312
 Frc consts  --     13.9988                 7.4971                 2.9510
 IR Inten    --    182.1586                55.0544               104.0997

                     43                     44                     45
                      A                      A                      A
 Frequencies --   1669.5353              3010.4105              3063.4124
 Red. masses --      2.7072                 1.0447                 1.0932
 Frc consts  --      4.4459                 5.5781                 6.0445
 IR Inten    --     26.5991                26.5112                15.0946

                     46                     47                     48
                      A                      A                      A
 Frequencies --   3123.5653              3174.6403              3214.7760
 Red. masses --      1.0976                 1.0893                 1.0901
 Frc consts  --      6.3097                 6.4682                 6.6378
 IR Inten    --     10.3598                12.5882                 2.9802

                     49                     50                     51
                      A                      A                      A
 Frequencies --   3245.3735              3576.0049              3676.2844
 Red. masses --      1.0921                 1.0472                 1.0983
 Frc consts  --      6.7770                 7.8898                 8.7459
 IR Inten    --      2.1350                21.0228                16.5869

 - Thermochemistry -
 -------------------
 Temperature   298.150 Kelvin.  Pressure   1.00000 Atm.
 Atom     1 has atomic number  6 and mass  12.00000

 Molecular mass:   152.05858 amu.
 Principal axes and moments of inertia in atomic units:
                           1         2         3
     Eigenvalues --   728.726832484.605393200.54861
           X            1.00000   0.00123  -0.00187
           Y           -0.00122   0.99999   0.00531
           Z            0.00188  -0.00531   0.99998
 This molecule is an asymmetric top.
 Rotational symmetry number  1.
 Warning -- assumption of classical behavior for rotation
           may cause significant error
 Rotational temperatures (Kelvin)      0.11886     0.03486     0.02706
 Rotational constants (GHZ):           2.47657     0.72637     0.56388
 Zero-point vibrational energy     387021.2 (Joules/Mol)
                                   92.50029 (Kcal/Mol)
 Warning -- explicit consideration of  15 degrees of freedom as
           vibrations may cause significant error
 Vibrational temperatures:     86.11   157.56   258.49   302.00   305.16
          (Kelvin)            416.77   445.01   506.73   520.18   599.75
                              652.73   787.11   802.59   810.43   872.79
                              936.50  1057.05  1101.41  1107.92  1196.94
                             1214.70  1307.68  1373.75  1376.44  1458.13
                             1524.34  1557.10  1607.38  1673.50  1750.25
                             1862.56  1890.11  1978.64  2003.87  2031.77
                             2094.15  2132.97  2162.56  2198.37  2313.58
                             2349.46  2379.49  2402.09  4331.30  4407.56
                             4494.11  4567.59  4625.34  4669.36  5145.07
                             5289.35

 Zero-point correction=                           0.147409 (Hartree/Particle)
 Thermal correction to Energy=                    0.157182
 Thermal correction to Enthalpy=                  0.158126
 Thermal correction to Gibbs Free Energy=         0.112292
 Sum of electronic and zero-point Energies=           -531.318861
 Sum of electronic and thermal Energies=              -531.309088
 Sum of electronic and thermal Enthalpies=            -531.308144
 Sum of electronic and thermal Free Energies=         -531.353978

                     E (Thermal)             CV                S
                      KCal/Mol        Cal/Mol-Kelvin    Cal/Mol-Kelvin
 Total                   98.633             37.447             96.465
 Electronic               0.000              0.000              0.000
 Translational            0.889              2.981             40.967
 Rotational               0.889              2.981             30.139
 Vibrational             96.856             31.485             25.359
 Vibration     1          0.597              1.973              4.462
 Vibration     2          0.606              1.942              3.278
 Vibration     3          0.629              1.867              2.332
 Vibration     4          0.642              1.826              2.045
 Vibration     5          0.643              1.822              2.026
 Vibration     6          0.686              1.693              1.476
 Vibration     7          0.699              1.656              1.366
 Vibration     8          0.729              1.571              1.156
 Vibration     9          0.736              1.551              1.115
 Vibration    10          0.780              1.434              0.903
 Vibration    11          0.812              1.353              0.785
 Vibration    12          0.902              1.146              0.550
 Vibration    13          0.913              1.123              0.528
 Vibration    14          0.919              1.111              0.517
 Vibration    15          0.965              1.018              0.438

 Optimization completed.
    -- Stationary point found.
 Normal termination of Gaussian 09 at Wed Aug 25 10:01:14 2021.

 -----------------------------------------------------------------
 #P Geom=AllCheck Guess=TCheck SCRF=Check CCSD(T,E4T,FrzG4)/GTBas1
 -----------------------------------------------------------------

 Structure from the checkpoint file:  "/public/home/users/caep010/.cache/gau_scr/Gau-145002.chk"
 ------
 TIXQUM
 ------
 Charge =  0 Multiplicity = 1

 SCF Done:  E(RHF) =  -528.235358434     A.U. after   15 cycles
 E2 =    -0.1599043238D+01 EUMP2 =    -0.52983440167234D+03
 CCSD(T)
 CCSD(T)= -0.52993940590D+03
 .8712332\CCSD=-529.868334\CCSD(T)=-529.9394059\RMSD=3.334e-09\PG=C01 [
 Normal termination of Gaussian 09 at Wed Aug 25 10:39:43 2021.

 ---------------------------------------------------------
 #P Geom=AllCheck Guess=TCheck SCRF=Check MP4=FrzG4/GTBas2
 ---------------------------------------------------------

 Structure from the checkpoint file:  "/public/home/users/caep010/.cache/gau_scr/Gau-145002.chk"
 ------
 TIXQUM
 ------
 Charge =  0 Multiplicity = 1

 SCF Done:  E(RHF) =  -528.250880304     A.U. after   16 cycles
 E2 =    -0.1619605537D+01 EUMP2 =    -0.52987048584120D+03
 Normal termination of Gaussian 09 at Wed Aug 25 10:53:13 2021.

 ---------------------------------------------------------
 #P Geom=AllCheck Guess=TCheck SCRF=Check MP4=FrzG4/GTBas3
 ---------------------------------------------------------

 Structure from the checkpoint file:  "/public/home/users/caep010/.cache/gau_scr/Gau-145002.chk"
 ------
 TIXQUM
 ------
 Charge =  0 Multiplicity = 1

 SCF Done:  E(RHF) =  -528.293435203     A.U. after   12 cycles
 E2 =    -0.1915847199D+01 EUMP2 =    -0.53020928240210D+03
 Normal termination of Gaussian 09 at Wed Aug 25 12:46:26 2021.

 -----------------------------------------------------------
 #P Geom=AllCheck Guess=TCheck SCRF=Check MP2=Full/GTLargeXP
 -----------------------------------------------------------

 Structure from the checkpoint file:  "/public/home/users/caep010/.cache/gau_scr/Gau-145002.chk"
 ------
 TIXQUM
 ------
 Charge =  0 Multiplicity = 1

 SCF Done:  E(RHF) =  -528.420864320     A.U. after   14 cycles
 E2 =    -0.2513510643D+01 EUMP2 =    -0.53093437496324D+03
 Normal termination of Gaussian 09 at Wed Aug 25 12:59:29 2021.
 SCF Done:  E(RHF) =  -528.463300926     A.U. after   10 cycles
 Normal termination of Gaussian 09 at Wed Aug 25 13:04:34 2021.

                         Standard orientation:
 ---------------------------------------------------------------------
 Center     Atomic      Atomic             Coordinates (Angstroms)
 Number     Number       Type             X           Y           Z
 ---------------------------------------------------------------------
      1          6           0       -1.272257    0.781394   -0.003063
      2          7           0       -2.134386    1.872851   -0.069987
      3          6           0       -1.788223   -0.535362    0.001659
      4          6           0       -3.276705   -0.758457   -0.012951
      5          6           0        0.111123    0.976539   -0.003196
      6          1           0        0.539638    1.971100   -0.006723
      7          6           0       -0.898076   -1.608426    0.009092
      8          1           0       -1.299860   -2.617393    0.013196
      9          1           0       -3.041492    1.743638    0.351229
     10          6           0        0.480558   -1.427756    0.007253
     11          1           0        1.173465   -2.256595    0.010759
     12          6           0        0.956165   -0.123903   -0.000869
     13          7           0        2.409856    0.107712   -0.000646
     14          8           0        2.803446    1.268652   -0.001865
     15          8           0        3.142309   -0.874035    0.001532
     16          1           0       -1.722451    2.757831    0.185464
     17          1           0       -3.515595   -1.822318   -0.072469
     18          1           0       -3.746078   -0.254545   -0.866274
     19          1           0       -3.757475   -0.366781    0.894353
 ---------------------------------------------------------------------

 SCF Done:  E(RHF) =  -528.471465623     A.U. after    8 cycles

 The electronic state is 1-A.
 Alpha  occ. eigenvalues --  -20.59334 -20.59301 -15.84599 -15.58366 -11.30290
 Alpha  occ. eigenvalues --  -11.30162 -11.26616 -11.25797 -11.25671 -11.25480
 Alpha  occ. eigenvalues --  -11.24733  -1.59745  -1.39114  -1.25149  -1.17346
 Alpha  occ. eigenvalues --   -1.09586  -1.02281  -1.00482  -0.91190  -0.85714
 Alpha  occ. eigenvalues --   -0.81260  -0.77389  -0.73264  -0.71260  -0.70679
 Alpha  occ. eigenvalues --   -0.67343  -0.66522  -0.63324  -0.61568  -0.60437
 Alpha  occ. eigenvalues --   -0.57065  -0.54396  -0.53388  -0.52508  -0.49014
 Alpha  occ. eigenvalues --   -0.48802  -0.47747  -0.44940  -0.36381  -0.31942
 Alpha virt. eigenvalues --    0.02680   0.03493   0.03934   0.04266   0.05084
 Alpha virt. eigenvalues --    0.05764   0.06306   0.07159   0.07808   0.08016
 Alpha virt. eigenvalues --    0.08195   0.08457   0.09241   0.09577   0.10057

 Mulliken charges:
               1
     1  C    0.217066
     2  N   -0.742782
     3  C    0.194802
     4  C   -0.661565
     5  C   -0.206211
     6  H    0.231494
     7  C   -0.213732
     8  H    0.203868
     9  H    0.314426
    10  C   -0.225025
    11  H    0.257716
    12  C    0.096642
    13  N    0.527207
    14  O   -0.444706
    15  O   -0.434676
    16  H    0.311198
    17  H    0.183695
    18  H    0.211857
    19  H    0.178725
 Sum of Mulliken charges =  -0.00000

 Dipole moment (field-independent basis, Debye):
    X=             -6.3185    Y=              0.0518    Z=              0.9254  Tot=              6.3861
 Quadrupole moment (field-independent basis, Debye-Ang):
   XX=            -72.5731   YY=            -58.0050   ZZ=            -66.9807
   XY=             -1.9703   XZ=             -2.6761   YZ=              2.3704

 Normal termination of Gaussian 09 at Wed Aug 25 13:38:43 2021.
