 Gaussian 09, Revision E.01,
 Gaussian 09:  ES64L-G09RevE.01 30-Nov-2015

 ----------------
 #P G4 OPT=calcfc
 ----------------

 --------
 TOQMUH01
 --------
 Symbolic Z-matrix:
 Charge =  0 Multiplicity = 1

 SCF Done:  E(RB3LYP) =  -508.081825743     A.U. after   16 cycles
 SCF Done:  E(RB3LYP) =  -508.137580582     A.U. after   13 cycles
 SCF Done:  E(RB3LYP) =  -508.149529761     A.U. after   14 cycles
 SCF Done:  E(RB3LYP) =  -508.150287918     A.U. after   13 cycles
 SCF Done:  E(RB3LYP) =  -508.150311407     A.U. after   10 cycles
 SCF Done:  E(RB3LYP) =  -508.150313008     A.U. after    9 cycles
 SCF Done:  E(RB3LYP) =  -508.150313101     A.U. after    8 cycles
 SCF Done:  E(RB3LYP) =  -508.150313139     A.U. after    8 cycles
 SCF Done:  E(RB3LYP) =  -508.150313186     A.U. after    8 cycles
 SCF Done:  E(RB3LYP) =  -508.150313223     A.U. after    9 cycles
 SCF Done:  E(RB3LYP) =  -508.150313230     A.U. after    8 cycles
 Optimization completed.
    -- Stationary point found.
 Normal termination of Gaussian 09 at Fri Aug 27 09:40:03 2021.

 ----------------------------------------------------------
 #P Geom=AllCheck Guess=TCheck SCRF=Check B3LYP/GTBas3 Freq
 ----------------------------------------------------------

 Structure from the checkpoint file:  "/public/home/users/caep010/.cache/gau_scr/Gau-211393.chk"
 --------
 TOQMUH01
 --------
 Charge =  0 Multiplicity = 1

 SCF Done:  E(RB3LYP) =  -508.150313230     A.U. after    1 cycles

  Exact polarizability: 143.860   4.277  84.300  -0.000   0.000  35.273
 Approx polarizability: 242.734  17.345 160.758  -0.002  -0.001  57.656

                      1                      2                      3
                      A                      A                      A
 Frequencies --     14.4489               103.5779               218.1501
 Red. masses --      9.0034                 5.7829                 6.9352
 Frc consts  --      0.0011                 0.0366                 0.1945
 IR Inten    --      0.0088                 0.1761                 1.0667

                      4                      5                      6
                      A                      A                      A
 Frequencies --    220.7691               364.6660               395.4080
 Red. masses --      7.1665                 7.2189                 3.2948
 Frc consts  --      0.2058                 0.5656                 0.3035
 IR Inten    --      1.7256                 0.5013                 0.6622

                      7                      8                      9
                      A                      A                      A
 Frequencies --    419.2917               503.8658               623.4878
 Red. masses --      9.7123                 2.4214                 6.5597
 Frc consts  --      1.0060                 0.3622                 1.5024
 IR Inten    --      3.2032                20.8353                 0.2910

                     10                     11                     12
                      A                      A                      A
 Frequencies --    669.4933               730.1828               774.3328
 Red. masses --      8.1225                 2.1312                11.3349
 Frc consts  --      2.1450                 0.6695                 4.0043
 IR Inten    --      0.2617                24.9057                 9.4640

                     13                     14                     15
                      A                      A                      A
 Frequencies --    776.4584               783.7412               801.5666
 Red. masses --      1.2839                 1.9225                 6.6989
 Frc consts  --      0.4560                 0.6958                 2.5359
 IR Inten    --     12.8067                80.4962                 1.1275

                     16                     17                     18
                      A                      A                      A
 Frequencies --    870.4859               881.0648               948.0348
 Red. masses --      7.4942                 1.4973                 1.2701
 Frc consts  --      3.3458                 0.6848                 0.6726
 IR Inten    --     53.8220                 9.9911                 0.2800

                     19                     20                     21
                      A                      A                      A
 Frequencies --    987.7454              1022.1322              1023.4098
 Red. masses --      6.5755                 6.0161                 1.2968
 Frc consts  --      3.7798                 3.7032                 0.8003
 IR Inten    --      0.7100                59.4498                 0.3131

                     22                     23                     24
                      A                      A                      A
 Frequencies --   1048.5728              1126.8479              1175.5841
 Red. masses --      2.3692                 1.5976                 1.1447
 Frc consts  --      1.5348                 1.1952                 0.9321
 IR Inten    --     24.8685                16.9759                65.7981

                     25                     26                     27
                      A                      A                      A
 Frequencies --   1238.4571              1314.6651              1328.5432
 Red. masses --      1.2390                 3.4702                 6.1729
 Frc consts  --      1.1197                 3.5337                 6.4193
 IR Inten    --     46.2208               200.0805               566.0294

                     28                     29                     30
                      A                      A                      A
 Frequencies --   1379.5913              1418.1188              1486.0619
 Red. masses --      1.7362                 3.0568                 2.4043
 Frc consts  --      1.9469                 3.6220                 3.1283
 IR Inten    --     27.6567                61.9540                45.9402

                     31                     32                     33
                      A                      A                      A
 Frequencies --   1563.6548              1608.9079              1623.8244
 Red. masses --      4.8504                 4.2418                 5.6945
 Frc consts  --      6.9873                 6.4694                 8.8467
 IR Inten    --    100.3423               497.8343               144.6404

                     34                     35                     36
                      A                      A                      A
 Frequencies --   1678.2618              3185.9064              3218.8901
 Red. masses --      5.7516                 1.0899                 1.0895
 Frc consts  --      9.5447                 6.5177                 6.6510
 IR Inten    --    222.7459                 7.2992                 0.6154

                     37                     38                     39
                      A                      A                      A
 Frequencies --   3239.5331              3297.7547              3583.8441
 Red. masses --      1.0978                 1.0915                 1.0771
 Frc consts  --      6.7879                 6.9937                 8.1509
 IR Inten    --      1.3248                13.8827                76.9676

 - Thermochemistry -
 -------------------
 Temperature   298.150 Kelvin.  Pressure   1.00000 Atm.
 Atom     1 has atomic number  8 and mass  15.99491

 Molecular mass:   139.03818 amu.
 Principal axes and moments of inertia in atomic units:
                           1         2         3
     Eigenvalues --   454.857922139.260582594.11850
           X            1.00000  -0.00063   0.00000
           Y            0.00063   1.00000   0.00000
           Z           -0.00000  -0.00000   1.00000
 This molecule is an asymmetric top.
 Rotational symmetry number  1.
 Warning -- assumption of classical behavior for rotation
           may cause significant error
 Rotational temperatures (Kelvin)      0.19042     0.04049     0.03339
 Rotational constants (GHZ):           3.96770     0.84363     0.69570
 Zero-point vibrational energy     285006.3 (Joules/Mol)
                                   68.11814 (Kcal/Mol)
 Warning -- explicit consideration of   8 degrees of freedom as
           vibrations may cause significant error
 Vibrational temperatures:     20.79   149.03   313.87   317.64   524.67
          (Kelvin)            568.90   603.27   724.95   897.06   963.25
                             1050.57  1114.09  1117.15  1127.63  1153.27
                             1252.43  1267.65  1364.01  1421.14  1470.62
                             1472.46  1508.66  1621.28  1691.40  1781.86
                             1891.51  1911.47  1984.92  2040.35  2138.11
                             2249.75  2314.86  2336.32  2414.64  4583.80
                             4631.26  4660.96  4744.73  5156.35

 Zero-point correction=                           0.108553 (Hartree/Particle)
 Thermal correction to Energy=                    0.116373
 Thermal correction to Enthalpy=                  0.117318
 Thermal correction to Gibbs Free Energy=         0.073997
 Sum of electronic and zero-point Energies=           -508.041760
 Sum of electronic and thermal Energies=              -508.033940
 Sum of electronic and thermal Enthalpies=            -508.032996
 Sum of electronic and thermal Free Energies=         -508.076316

                     E (Thermal)             CV                S
                      KCal/Mol        Cal/Mol-Kelvin    Cal/Mol-Kelvin
 Total                   73.025             28.922             91.176
 Electronic               0.000              0.000              0.000
 Translational            0.889              2.981             40.700
 Rotational               0.889              2.981             29.314
 Vibrational             71.248             22.960             21.162
 Vibration     1          0.593              1.986              7.280
 Vibration     2          0.605              1.946              3.386
 Vibration     3          0.646              1.813              1.974
 Vibration     4          0.647              1.809              1.953
 Vibration     5          0.738              1.545              1.102
 Vibration     6          0.762              1.480              0.980
 Vibration     7          0.782              1.428              0.894
 Vibration     8          0.859              1.241              0.649

 Optimization completed.
    -- Stationary point found.
 Normal termination of Gaussian 09 at Fri Aug 27 09:41:20 2021.

 -----------------------------------------------------------------
 #P Geom=AllCheck Guess=TCheck SCRF=Check CCSD(T,E4T,FrzG4)/GTBas1
 -----------------------------------------------------------------

 Structure from the checkpoint file:  "/public/home/users/caep010/.cache/gau_scr/Gau-211393.chk"
 --------
 TOQMUH01
 --------
 Charge =  0 Multiplicity = 1

 SCF Done:  E(RHF) =  -505.158877001     A.U. after   15 cycles
 E2 =    -0.1489419411D+01 EUMP2 =    -0.50664829641192D+03
 CCSD(T)
 CCSD(T)= -0.50673793354D+03
 MP4SDTQ=-506.7508606\MP4SDQ=-506.6731877\CCSD=-506.6701068\CCSD(T)=-50
 Normal termination of Gaussian 09 at Fri Aug 27 09:57:27 2021.

 ---------------------------------------------------------
 #P Geom=AllCheck Guess=TCheck SCRF=Check MP4=FrzG4/GTBas2
 ---------------------------------------------------------

 Structure from the checkpoint file:  "/public/home/users/caep010/.cache/gau_scr/Gau-211393.chk"
 --------
 TOQMUH01
 --------
 Charge =  0 Multiplicity = 1

 SCF Done:  E(RHF) =  -505.174993706     A.U. after   14 cycles
 E2 =    -0.1508840117D+01 EUMP2 =    -0.50668383382254D+03
 Normal termination of Gaussian 09 at Fri Aug 27 10:04:04 2021.

 ---------------------------------------------------------
 #P Geom=AllCheck Guess=TCheck SCRF=Check MP4=FrzG4/GTBas3
 ---------------------------------------------------------

 Structure from the checkpoint file:  "/public/home/users/caep010/.cache/gau_scr/Gau-211393.chk"
 --------
 TOQMUH01
 --------
 Charge =  0 Multiplicity = 1

 SCF Done:  E(RHF) =  -505.211334901     A.U. after   12 cycles
 E2 =    -0.1772887811D+01 EUMP2 =    -0.50698422271250D+03
 Normal termination of Gaussian 09 at Fri Aug 27 10:46:13 2021.

 -----------------------------------------------------------
 #P Geom=AllCheck Guess=TCheck SCRF=Check MP2=Full/GTLargeXP
 -----------------------------------------------------------

 Structure from the checkpoint file:  "/public/home/users/caep010/.cache/gau_scr/Gau-211393.chk"
 --------
 TOQMUH01
 --------
 Charge =  0 Multiplicity = 1

 SCF Done:  E(RHF) =  -505.337688314     A.U. after   15 cycles
 E2 =    -0.2321351460D+01 EUMP2 =    -0.50765903977458D+03
 Normal termination of Gaussian 09 at Fri Aug 27 10:55:35 2021.
 SCF Done:  E(RHF) =  -505.378220101     A.U. after   10 cycles
 Normal termination of Gaussian 09 at Fri Aug 27 10:58:50 2021.

                         Standard orientation:
 ---------------------------------------------------------------------
 Center     Atomic      Atomic             Coordinates (Angstroms)
 Number     Number       Type             X           Y           Z
 ---------------------------------------------------------------------
      1          8           0       -2.114094    1.242563   -0.000089
      2          7           0       -2.204745    0.009686   -0.000005
      3          8           0       -3.265548   -0.595598    0.000064
      4          7           0       -1.087271   -0.806070    0.000006
      5          6           0        0.118635   -0.256719    0.000002
      6          7           0        1.100765   -1.232595   -0.000023
      7          1           0        0.735911   -2.177266   -0.000041
      8          6           0        0.619886    1.086826    0.000031
      9          6           0        1.970419    1.317865    0.000035
     10          1           0        2.323003    2.344479    0.000060
     11          6           0        2.917232    0.264994    0.000006
     12          1           0        3.981877    0.451581    0.000007
     13          6           0        2.436003   -1.010429   -0.000021
     14          1           0       -0.098456    1.887691    0.000051
     15          1           0        3.060509   -1.894574   -0.000042
 ---------------------------------------------------------------------

 SCF Done:  E(RHF) =  -505.385992062     A.U. after    8 cycles

 The electronic state is 1-A.
 Alpha  occ. eigenvalues --  -20.56575 -20.56281 -15.84781 -15.66536 -15.58545
 Alpha  occ. eigenvalues --  -11.37742 -11.34126 -11.30023 -11.27034 -11.26395
 Alpha  occ. eigenvalues --   -1.58417  -1.36756  -1.35869  -1.23984  -1.13823
 Alpha  occ. eigenvalues --   -1.07504  -0.94669  -0.91936  -0.85282  -0.78042
 Alpha  occ. eigenvalues --   -0.76275  -0.72361  -0.70691  -0.69418  -0.68894
 Alpha  occ. eigenvalues --   -0.66278  -0.62872  -0.60135  -0.56027  -0.51584
 Alpha  occ. eigenvalues --   -0.47284  -0.47228  -0.44938  -0.43950  -0.43143
 Alpha  occ. eigenvalues --   -0.33417
 Alpha virt. eigenvalues --    0.01706   0.02863   0.03883   0.04134   0.04662
 Alpha virt. eigenvalues --    0.05616   0.06179   0.06628   0.07093   0.07683
 Alpha virt. eigenvalues --    0.08172   0.08576   0.09036   0.10114   0.10247

 Mulliken charges:
               1
     1  O   -0.470614
     2  N    0.529735
     3  O   -0.418854
     4  N   -0.455431
     5  C    0.462810
     6  N   -0.416127
     7  H    0.397284
     8  C   -0.195071
     9  C   -0.094321
    10  H    0.228864
    11  C   -0.232053
    12  H    0.224546
    13  C   -0.062765
    14  H    0.277834
    15  H    0.224166
 Sum of Mulliken charges =  -0.00000

 Dipole moment (field-independent basis, Debye):
    X=              9.4492    Y=             -1.0466    Z=              0.0000  Tot=              9.5070
 Quadrupole moment (field-independent basis, Debye-Ang):
   XX=            -64.1310   YY=            -51.0159   ZZ=            -59.1258
   XY=             -2.6082   XZ=              0.0000   YZ=              0.0007

 Normal termination of Gaussian 09 at Fri Aug 27 11:21:29 2021.
