 Gaussian 09, Revision E.01,
 Gaussian 09:  ES64L-G09RevE.01 30-Nov-2015

 ----------------
 #P G4 OPT=calcfc
 ----------------

 --------
 TEVHEH01
 --------
 Symbolic Z-matrix:
 Charge =  0 Multiplicity = 1

 SCF Done:  E(RB3LYP) =  -635.204880222     A.U. after   16 cycles
 SCF Done:  E(RB3LYP) =  -635.246118353     A.U. after   14 cycles
 SCF Done:  E(RB3LYP) =  -635.250424910     A.U. after   16 cycles
 SCF Done:  E(RB3LYP) =  -635.251133088     A.U. after   14 cycles
 SCF Done:  E(RB3LYP) =  -635.251162532     A.U. after   12 cycles
 SCF Done:  E(RB3LYP) =  -635.251163869     A.U. after    8 cycles
 Optimization completed.
    -- Stationary point found.
 Normal termination of Gaussian 09 at Thu Aug 26 23:37:35 2021.

 ----------------------------------------------------------
 #P Geom=AllCheck Guess=TCheck SCRF=Check B3LYP/GTBas3 Freq
 ----------------------------------------------------------

 Structure from the checkpoint file:  "/public/home/users/caep010/.cache/gau_scr/Gau-69796.chk"
 --------
 TEVHEH01
 --------
 Charge =  0 Multiplicity = 1

 SCF Done:  E(RB3LYP) =  -635.251163869     A.U. after    1 cycles

  Exact polarizability: 112.383  -1.938  82.799   0.000   0.001  33.816
 Approx polarizability: 172.686  -3.155 188.453  -0.000   0.003  55.201

                      1                      2                      3
                      A                      A                      A
 Frequencies --     62.4174                85.1138               146.5303
 Red. masses --     14.9758                10.8767                13.4582
 Frc consts  --      0.0344                 0.0464                 0.1703
 IR Inten    --      0.6259                 7.1049                 4.4885

                      4                      5                      6
                      A                      A                      A
 Frequencies --    148.1118               279.3766               281.3103
 Red. masses --      9.2754                 8.9418                 8.2719
 Frc consts  --      0.1199                 0.4112                 0.3857
 IR Inten    --      0.2646                 3.3680                 0.0147

                      7                      8                      9
                      A                      A                      A
 Frequencies --    349.1205               494.8724               518.8123
 Red. masses --     14.6996                 7.2430                12.4464
 Frc consts  --      1.0556                 1.0451                 1.9738
 IR Inten    --      0.3693                 3.9472                 0.5134

                     10                     11                     12
                      A                      A                      A
 Frequencies --    609.6395               618.1216               656.2635
 Red. masses --      8.6004                 4.2962                11.6746
 Frc consts  --      1.8833                 0.9671                 2.9624
 IR Inten    --      0.8513                15.6461                21.2132

                     13                     14                     15
                      A                      A                      A
 Frequencies --    690.7941               780.1420               783.1270
 Red. masses --      1.1620                 3.9205                 8.3443
 Frc consts  --      0.3267                 1.4058                 3.0151
 IR Inten    --     68.3682                 1.8098                13.8355

                     16                     17                     18
                      A                      A                      A
 Frequencies --    831.9862               846.3461               853.1290
 Red. masses --     12.9455                12.7285                 1.8292
 Frc consts  --      5.2796                 5.3719                 0.7844
 IR Inten    --     13.7255               101.1678                 6.4021

                     19                     20                     21
                      A                      A                      A
 Frequencies --    994.1703              1016.9276              1101.1661
 Red. masses --      7.2960                 3.8830                 1.3644
 Frc consts  --      4.2487                 2.3659                 0.9747
 IR Inten    --      1.0778                 1.9289                57.7723

                     22                     23                     24
                      A                      A                      A
 Frequencies --   1188.7567              1304.4792              1377.2143
 Red. masses --      1.9870                10.2429                 9.6961
 Frc consts  --      1.6544                10.2695                10.8355
 IR Inten    --     16.3171                24.9516               194.5435

                     25                     26                     27
                      A                      A                      A
 Frequencies --   1391.4970              1420.9720              1438.2493
 Red. masses --      9.2824                11.1265                 4.6190
 Frc consts  --     10.5895                13.2367                 5.6294
 IR Inten    --    389.4141                 1.2660                13.9838

                     28                     29                     30
                      A                      A                      A
 Frequencies --   1533.6719              1554.1091              1650.8938
 Red. masses --      5.7891                 6.3138                13.8870
 Frc consts  --      8.0229                 8.9847                22.2995
 IR Inten    --     40.5414                 7.3944                32.6966

                     31                     32                     33
                      A                      A                      A
 Frequencies --   1655.9205              3301.2338              3639.5924
 Red. masses --     14.3813                 1.1006                 1.0817
 Frc consts  --     23.2342                 7.0670                 8.4420
 IR Inten    --    396.8066                12.1631               141.8703

 - Thermochemistry -
 -------------------
 Temperature   298.150 Kelvin.  Pressure   1.00000 Atm.
 Atom     1 has atomic number  8 and mass  15.99491

 Molecular mass:   158.00760 amu.
 Principal axes and moments of inertia in atomic units:
                           1         2         3
     Eigenvalues --   561.790192759.552873321.34304
           X            1.00000   0.00007   0.00000
           Y           -0.00007   1.00000   0.00000
           Z           -0.00000  -0.00000   1.00000
 This molecule is an asymmetric top.
 Rotational symmetry number  1.
 Warning -- assumption of classical behavior for rotation
           may cause significant error
 Rotational temperatures (Kelvin)      0.15417     0.03139     0.02608
 Rotational constants (GHZ):           3.21248     0.65400     0.54338
 Zero-point vibrational energy     200997.0 (Joules/Mol)
                                   48.03943 (Kcal/Mol)
 Warning -- explicit consideration of  11 degrees of freedom as
           vibrations may cause significant error
 Vibrational temperatures:     89.80   122.46   210.82   213.10   401.96
          (Kelvin)            404.74   502.31   712.01   746.45   877.13
                              889.34   944.22   993.90  1122.45  1126.74
                             1197.04  1217.70  1227.46  1430.39  1463.13
                             1584.33  1710.35  1876.85  1981.50  2002.05
                             2044.46  2069.32  2206.61  2236.01  2375.26
                             2382.50  4749.73  5236.56

 Zero-point correction=                           0.076556 (Hartree/Particle)
 Thermal correction to Energy=                    0.085037
 Thermal correction to Enthalpy=                  0.085981
 Thermal correction to Gibbs Free Energy=         0.041746
 Sum of electronic and zero-point Energies=           -635.174608
 Sum of electronic and thermal Energies=              -635.166127
 Sum of electronic and thermal Enthalpies=            -635.165183
 Sum of electronic and thermal Free Energies=         -635.209418

                     E (Thermal)             CV                S
                      KCal/Mol        Cal/Mol-Kelvin    Cal/Mol-Kelvin
 Total                   53.361             30.055             93.101
 Electronic               0.000              0.000              0.000
 Translational            0.889              2.981             41.082
 Rotational               0.889              2.981             30.022
 Vibrational             51.584             24.094             21.998
 Vibration     1          0.597              1.972              4.379
 Vibration     2          0.601              1.960              3.769
 Vibration     3          0.617              1.906              2.717
 Vibration     4          0.617              1.905              2.696
 Vibration     5          0.680              1.712              1.537
 Vibration     6          0.681              1.708              1.526
 Vibration     7          0.726              1.577              1.170
 Vibration     8          0.850              1.261              0.671
 Vibration     9          0.874              1.208              0.613
 Vibration    10          0.969              1.011              0.433
 Vibration    11          0.978              0.994              0.420

 Optimization completed.
    -- Stationary point found.
 Normal termination of Gaussian 09 at Thu Aug 26 23:39:00 2021.

 -----------------------------------------------------------------
 #P Geom=AllCheck Guess=TCheck SCRF=Check CCSD(T,E4T,FrzG4)/GTBas1
 -----------------------------------------------------------------

 Structure from the checkpoint file:  "/public/home/users/caep010/.cache/gau_scr/Gau-69796.chk"
 --------
 TEVHEH01
 --------
 Charge =  0 Multiplicity = 1

 SCF Done:  E(RHF) =  -631.730520792     A.U. after   16 cycles
 E2 =    -0.1791599568D+01 EUMP2 =    -0.63352212036034D+03
 CCSD(T)
 CCSD(T)= -0.63359013107D+03
 4\MP4SDQ=-633.5180709\CCSD=-633.5093485\CCSD(T)=-633.5901311\RMSD=4.89
 Normal termination of Gaussian 09 at Fri Aug 27 00:09:42 2021.

 ---------------------------------------------------------
 #P Geom=AllCheck Guess=TCheck SCRF=Check MP4=FrzG4/GTBas2
 ---------------------------------------------------------

 Structure from the checkpoint file:  "/public/home/users/caep010/.cache/gau_scr/Gau-69796.chk"
 --------
 TEVHEH01
 --------
 Charge =  0 Multiplicity = 1

 SCF Done:  E(RHF) =  -631.749275071     A.U. after   13 cycles
 E2 =    -0.1816338493D+01 EUMP2 =    -0.63356561356383D+03
 Normal termination of Gaussian 09 at Fri Aug 27 00:21:14 2021.

 ---------------------------------------------------------
 #P Geom=AllCheck Guess=TCheck SCRF=Check MP4=FrzG4/GTBas3
 ---------------------------------------------------------

 Structure from the checkpoint file:  "/public/home/users/caep010/.cache/gau_scr/Gau-69796.chk"
 --------
 TEVHEH01
 --------
 Charge =  0 Multiplicity = 1

 SCF Done:  E(RHF) =  -631.796078555     A.U. after   13 cycles
 E2 =    -0.2123901352D+01 EUMP2 =    -0.63391997990640D+03
 Normal termination of Gaussian 09 at Fri Aug 27 01:22:21 2021.

 -----------------------------------------------------------
 #P Geom=AllCheck Guess=TCheck SCRF=Check MP2=Full/GTLargeXP
 -----------------------------------------------------------

 Structure from the checkpoint file:  "/public/home/users/caep010/.cache/gau_scr/Gau-69796.chk"
 --------
 TEVHEH01
 --------
 Charge =  0 Multiplicity = 1

 SCF Done:  E(RHF) =  -631.962043493     A.U. after   13 cycles
 E2 =    -0.2752088029D+01 EUMP2 =    -0.63471413152201D+03
 Normal termination of Gaussian 09 at Fri Aug 27 01:31:39 2021.
 SCF Done:  E(RHF) =  -632.012570976     A.U. after   10 cycles
 Normal termination of Gaussian 09 at Fri Aug 27 01:34:59 2021.

                         Standard orientation:
 ---------------------------------------------------------------------
 Center     Atomic      Atomic             Coordinates (Angstroms)
 Number     Number       Type             X           Y           Z
 ---------------------------------------------------------------------
      1          8           0        2.677296   -1.514779    0.000129
      2          7           0        2.413290   -0.330630    0.000021
      3          8           0        3.214044    0.606156    0.000027
      4          6           0        1.019900    0.061457   -0.000062
      5          7           0       -0.018868   -0.727998   -0.000127
      6          7           0        0.697081    1.386242   -0.000073
      7          1           0        1.375532    2.133768    0.000132
      8          6           0       -0.659709    1.455556   -0.000057
      9          1           0       -1.216304    2.376609    0.000131
     10          6           0       -1.063475    0.134310   -0.000127
     11          7           0       -2.444957   -0.306955    0.000015
     12          8           0       -2.666158   -1.502907   -0.000057
     13          8           0       -3.283349    0.591164    0.000195
 ---------------------------------------------------------------------

 SCF Done:  E(RHF) =  -632.022598630     A.U. after    9 cycles

 The electronic state is 1-A.
 Alpha  occ. eigenvalues --  -20.64709 -20.63687 -20.62221 -20.61289 -15.89834
 Alpha  occ. eigenvalues --  -15.87455 -15.70495 -15.64227 -11.41066 -11.36056
 Alpha  occ. eigenvalues --  -11.35804  -1.64941  -1.62512  -1.44648  -1.43615
 Alpha  occ. eigenvalues --   -1.41917  -1.26854  -1.15507  -1.06479  -0.98839
 Alpha  occ. eigenvalues --   -0.88498  -0.85563  -0.84105  -0.78074  -0.77249
 Alpha  occ. eigenvalues --   -0.76131  -0.75565  -0.74361  -0.72862  -0.68536
 Alpha  occ. eigenvalues --   -0.66997  -0.55173  -0.54005  -0.53218  -0.51695
 Alpha  occ. eigenvalues --   -0.51462  -0.49718  -0.48373  -0.46968  -0.40330
 Alpha virt. eigenvalues --    0.00651   0.01359   0.02940   0.04231   0.04319
 Alpha virt. eigenvalues --    0.05103   0.06532   0.06643   0.06771   0.07319
 Alpha virt. eigenvalues --    0.08008   0.09382   0.09975   0.10677   0.11631

 Mulliken charges:
               1
     1  O   -0.337544
     2  N    0.508988
     3  O   -0.435052
     4  C    0.420175
     5  N   -0.384305
     6  N   -0.331324
     7  H    0.426099
     8  C   -0.091956
     9  H    0.291351
    10  C    0.254678
    11  N    0.489510
    12  O   -0.368222
    13  O   -0.442399
 Sum of Mulliken charges =  -0.00000

 Dipole moment (field-independent basis, Debye):
    X=              1.4890    Y=              5.7962    Z=              0.0001  Tot=              5.9844
 Quadrupole moment (field-independent basis, Debye-Ang):
   XX=            -84.6048   YY=            -58.4419   ZZ=            -58.9761
   XY=              0.8244   XZ=              0.0006   YZ=              0.0008

 CCSD(T)/G3Bas1=-633.5901311\MP2/GTBas2=-633.5656136\MP4/GTBas2=-633.66
 Normal termination of Gaussian 09 at Fri Aug 27 02:01:08 2021.
