 Gaussian 09, Revision E.01,
 Gaussian 09:  ES64L-G09RevE.01 30-Nov-2015

 ----------------
 #P G4 OPT=calcfc
 ----------------

 ------
 TENZUJ
 ------
 Symbolic Z-matrix:
 Charge =  0 Multiplicity = 1

 SCF Done:  E(RB3LYP) =  -706.543169156     A.U. after   16 cycles
 SCF Done:  E(RB3LYP) =  -706.594009002     A.U. after   14 cycles
 SCF Done:  E(RB3LYP) =  -706.599801399     A.U. after   17 cycles
 SCF Done:  E(RB3LYP) =  -706.601752297     A.U. after   16 cycles
 SCF Done:  E(RB3LYP) =  -706.601167177     A.U. after   17 cycles
 SCF Done:  E(RB3LYP) =  -706.601850298     A.U. after   13 cycles
 SCF Done:  E(RB3LYP) =  -706.600489673     A.U. after   17 cycles
 SCF Done:  E(RB3LYP) =  -706.601989517     A.U. after   13 cycles
 SCF Done:  E(RB3LYP) =  -706.602041325     A.U. after   14 cycles
 SCF Done:  E(RB3LYP) =  -706.602091863     A.U. after   14 cycles
 SCF Done:  E(RB3LYP) =  -706.602157946     A.U. after   12 cycles
 SCF Done:  E(RB3LYP) =  -706.602158558     A.U. after   10 cycles
 SCF Done:  E(RB3LYP) =  -706.602158809     A.U. after    9 cycles
 Optimization completed.
    -- Stationary point found.
 Normal termination of Gaussian 09 at Fri Aug 27 09:27:39 2021.

 ----------------------------------------------------------
 #P Geom=AllCheck Guess=TCheck SCRF=Check B3LYP/GTBas3 Freq
 ----------------------------------------------------------

 Structure from the checkpoint file:  "/public/home/users/caep010/.cache/gau_scr/Gau-202678.chk"
 ------
 TENZUJ
 ------
 Charge =  0 Multiplicity = 1

 SCF Done:  E(RB3LYP) =  -706.602158809     A.U. after    1 cycles

  Exact polarizability: 109.099   3.987  94.549  -1.475  -1.755  37.572
 Approx polarizability: 186.202  13.311 185.817  -6.786  -7.627  63.678

                      1                      2                      3
                      A                      A                      A
 Frequencies --     30.1153                74.1626                95.3263
 Red. masses --     11.7304                15.1302                12.5465
 Frc consts  --      0.0063                 0.0490                 0.0672
 IR Inten    --      1.7668                 0.1371                 0.4412

                      4                      5                      6
                      A                      A                      A
 Frequencies --    134.1080               210.3846               223.7397
 Red. masses --     12.1552                10.7386                10.8284
 Frc consts  --      0.1288                 0.2800                 0.3194
 IR Inten    --      5.6928                 2.9173                 0.9732

                      7                      8                      9
                      A                      A                      A
 Frequencies --    327.9383               361.0388               413.5696
 Red. masses --     11.9094                 9.0286                13.3938
 Frc consts  --      0.7546                 0.6934                 1.3497
 IR Inten    --      1.2476                 0.4173                 0.6121

                     10                     11                     12
                      A                      A                      A
 Frequencies --    476.3559               581.9857               584.7842
 Red. masses --     11.7944                 5.3360                 2.5045
 Frc consts  --      1.5768                 1.0648                 0.5046
 IR Inten    --      2.0613                 3.5267                33.8686

                     13                     14                     15
                      A                      A                      A
 Frequencies --    645.7558               704.2974               714.8746
 Red. masses --      1.4422                 3.9008                 3.2004
 Frc consts  --      0.3543                 1.1400                 0.9637
 IR Inten    --     54.0822                23.2678                53.8906

                     16                     17                     18
                      A                      A                      A
 Frequencies --    768.6490               777.5430               799.8231
 Red. masses --      7.8275                 7.5772                13.0417
 Frc consts  --      2.7248                 2.6990                 4.9155
 IR Inten    --     22.0767                48.9194                 6.9211

                     19                     20                     21
                      A                      A                      A
 Frequencies --    838.8741               922.6054               985.6158
 Red. masses --      9.7626                 5.4981                 7.4086
 Frc consts  --      4.0477                 2.7574                 4.2403
 IR Inten    --     31.0081                28.3666                87.6869

                     22                     23                     24
                      A                      A                      A
 Frequencies --    998.6776              1155.4252              1210.0768
 Red. masses --      8.6915                 3.2223                 7.1385
 Frc consts  --      5.1074                 2.5345                 6.1586
 IR Inten    --     35.1545                49.5812                 2.0936

                     25                     26                     27
                      A                      A                      A
 Frequencies --   1277.1524              1347.0046              1358.4848
 Red. masses --      4.0033                12.2037                 2.9403
 Frc consts  --      3.8472                13.0460                 3.1970
 IR Inten    --     32.6680               608.0727                36.2646

                     28                     29                     30
                      A                      A                      A
 Frequencies --   1395.5490              1405.8498              1451.2189
 Red. masses --      9.0957                 7.1436                 1.9126
 Frc consts  --     10.4370                 8.3185                 2.3732
 IR Inten    --     23.4057               103.4079               117.7595

                     31                     32                     33
                      A                      A                      A
 Frequencies --   1536.4523              1586.7875              1645.4088
 Red. masses --      2.7490                 9.9041                11.8171
 Frc consts  --      3.8236                14.6927                18.8499
 IR Inten    --    116.9826                 8.7884               287.8966

                     34                     35                     36
                      A                      A                      A
 Frequencies --   1717.5048              3552.1344              3649.6468
 Red. masses --      7.9881                 1.0783                 1.0828
 Frc consts  --     13.8833                 8.0160                 8.4973
 IR Inten    --    278.3613               120.3871               184.2838

 - Thermochemistry -
 -------------------
 Temperature   298.150 Kelvin.  Pressure   1.00000 Atm.
 Atom     1 has atomic number  7 and mass  14.00307

 Molecular mass:   174.01375 amu.
 Principal axes and moments of inertia in atomic units:
                           1         2         3
     Eigenvalues --  1109.671642493.575023556.84677
           X            0.99992   0.01232  -0.00047
           Y           -0.01232   0.99992  -0.00203
           Z            0.00045   0.00204   1.00000
 This molecule is an asymmetric top.
 Rotational symmetry number  1.
 Warning -- assumption of classical behavior for rotation
           may cause significant error
 Rotational temperatures (Kelvin)      0.07805     0.03473     0.02435
 Rotational constants (GHZ):           1.62637     0.72376     0.50740
 Zero-point vibrational energy     215082.1 (Joules/Mol)
                                   51.40586 (Kcal/Mol)
 Warning -- explicit consideration of  12 degrees of freedom as
           vibrations may cause significant error
 Vibrational temperatures:     43.33   106.70   137.15   192.95   302.70
          (Kelvin)            321.91   471.83   519.45   595.03   685.37
                              837.35   841.37   929.10  1013.33  1028.54
                             1105.91  1118.71  1150.77  1206.95  1327.42
                             1418.08  1436.87  1662.40  1741.03  1837.54
                             1938.04  1954.55  2007.88  2022.70  2087.98
                             2210.61  2283.03  2367.37  2471.10  5110.72
                             5251.02

 Zero-point correction=                           0.081920 (Hartree/Particle)
 Thermal correction to Energy=                    0.091411
 Thermal correction to Enthalpy=                  0.092355
 Thermal correction to Gibbs Free Energy=         0.045005
 Sum of electronic and zero-point Energies=           -706.520238
 Sum of electronic and thermal Energies=              -706.510748
 Sum of electronic and thermal Enthalpies=            -706.509803
 Sum of electronic and thermal Free Energies=         -706.557153

                     E (Thermal)             CV                S
                      KCal/Mol        Cal/Mol-Kelvin    Cal/Mol-Kelvin
 Total                   57.361             33.238             99.656
 Electronic               0.000              0.000              0.000
 Translational            0.889              2.981             41.369
 Rotational               0.889              2.981             30.666
 Vibrational             55.584             27.276             27.622
 Vibration     1          0.594              1.984              5.822
 Vibration     2          0.599              1.966              4.040
 Vibration     3          0.603              1.953              3.548
 Vibration     4          0.613              1.919              2.886
 Vibration     5          0.643              1.825              2.040
 Vibration     6          0.649              1.805              1.929
 Vibration     7          0.711              1.620              1.270
 Vibration     8          0.735              1.553              1.118
 Vibration     9          0.777              1.441              0.914
 Vibration    10          0.833              1.303              0.720
 Vibration    11          0.939              1.070              0.482
 Vibration    12          0.942              1.064              0.477

 Optimization completed.
    -- Stationary point found.
 Normal termination of Gaussian 09 at Fri Aug 27 09:29:27 2021.

 -----------------------------------------------------------------
 #P Geom=AllCheck Guess=TCheck SCRF=Check CCSD(T,E4T,FrzG4)/GTBas1
 -----------------------------------------------------------------

 Structure from the checkpoint file:  "/public/home/users/caep010/.cache/gau_scr/Gau-202678.chk"
 ------
 TENZUJ
 ------
 Charge =  0 Multiplicity = 1

 SCF Done:  E(RHF) =  -702.693218551     A.U. after   16 cycles
 E2 =    -0.1999053449D+01 EUMP2 =    -0.70469227199944D+03
 CCSD(T)
 CCSD(T)= -0.70476392896D+03
 704.6747833\CCSD(T)=-704.763929\RMSD=3.747e-09\PG=C01 [X(C2H2N6O4)]\\@
 Normal termination of Gaussian 09 at Fri Aug 27 10:19:07 2021.

 ---------------------------------------------------------
 #P Geom=AllCheck Guess=TCheck SCRF=Check MP4=FrzG4/GTBas2
 ---------------------------------------------------------

 Structure from the checkpoint file:  "/public/home/users/caep010/.cache/gau_scr/Gau-202678.chk"
 ------
 TENZUJ
 ------
 Charge =  0 Multiplicity = 1

 SCF Done:  E(RHF) =  -702.714238373     A.U. after   15 cycles
 E2 =    -0.2026224276D+01 EUMP2 =    -0.70474046264860D+03
 Normal termination of Gaussian 09 at Fri Aug 27 10:37:07 2021.

 ---------------------------------------------------------
 #P Geom=AllCheck Guess=TCheck SCRF=Check MP4=FrzG4/GTBas3
 ---------------------------------------------------------

 Structure from the checkpoint file:  "/public/home/users/caep010/.cache/gau_scr/Gau-202678.chk"
 ------
 TENZUJ
 ------
 Charge =  0 Multiplicity = 1

 SCF Done:  E(RHF) =  -702.768849816     A.U. after   13 cycles
 E2 =    -0.2364746747D+01 EUMP2 =    -0.70513359656291D+03
 Normal termination of Gaussian 09 at Fri Aug 27 12:45:37 2021.

 -----------------------------------------------------------
 #P Geom=AllCheck Guess=TCheck SCRF=Check MP2=Full/GTLargeXP
 -----------------------------------------------------------

 Structure from the checkpoint file:  "/public/home/users/caep010/.cache/gau_scr/Gau-202678.chk"
 ------
 TENZUJ
 ------
 Charge =  0 Multiplicity = 1

 SCF Done:  E(RHF) =  -702.953298371     A.U. after   14 cycles
 E2 =    -0.3053854354D+01 EUMP2 =    -0.70600715272541D+03
 Normal termination of Gaussian 09 at Fri Aug 27 12:59:06 2021.
 SCF Done:  E(RHF) =  -703.010442710     A.U. after   10 cycles
 Normal termination of Gaussian 09 at Fri Aug 27 13:03:17 2021.

                         Standard orientation:
 ---------------------------------------------------------------------
 Center     Atomic      Atomic             Coordinates (Angstroms)
 Number     Number       Type             X           Y           Z
 ---------------------------------------------------------------------
      1          7           0        1.905294    1.350793   -0.088544
      2          6           0        1.242243    0.201990    0.013760
      3          6           0       -0.139770    0.466171    0.186830
      4          7           0        0.946011    2.234452    0.018513
      5          1           0        1.135049    3.224636   -0.031330
      6          7           0       -0.300523    1.788057    0.195097
      7          7           0       -1.120031   -0.483346    0.385109
      8          1           0       -0.813850   -1.450679    0.350281
      9          7           0       -2.447093   -0.336965   -0.057767
     10          8           0       -2.829563    0.776931   -0.338816
     11          8           0       -3.074331   -1.380291   -0.076635
     12          7           0        1.899903   -1.072613   -0.045575
     13          8           0        3.096606   -1.108638   -0.249639
     14          8           0        1.167167   -2.056200    0.118798
 ---------------------------------------------------------------------

 SCF Done:  E(RHF) =  -703.021595840     A.U. after    8 cycles

 The electronic state is 1-A.
 Alpha  occ. eigenvalues --  -20.64301 -20.63292 -20.62856 -20.62305 -15.91682
 Alpha  occ. eigenvalues --  -15.89611 -15.74860 -15.69696 -15.68771 -15.66689
 Alpha  occ. eigenvalues --  -11.38898 -11.37047  -1.65553  -1.64479  -1.52151
 Alpha  occ. eigenvalues --   -1.44188  -1.43785  -1.33605  -1.26435  -1.18529
 Alpha  occ. eigenvalues --   -1.05842  -0.99910  -0.88602  -0.87713  -0.83560
 Alpha  occ. eigenvalues --   -0.80805  -0.79167  -0.77934  -0.76574  -0.76508
 Alpha  occ. eigenvalues --   -0.75472  -0.71292  -0.70973  -0.60069  -0.56307
 Alpha  occ. eigenvalues --   -0.55493  -0.54699  -0.53255  -0.52724  -0.51477
 Alpha  occ. eigenvalues --   -0.49112  -0.48721  -0.46237  -0.40988
 Alpha virt. eigenvalues --    0.01371   0.02585   0.04268   0.04554   0.04792
 Alpha virt. eigenvalues --    0.06356   0.06805   0.07156   0.07288   0.07686
 Alpha virt. eigenvalues --    0.08910   0.09973   0.10055   0.10460   0.10992

 Mulliken charges:
               1
     1  N   -0.258723
     2  C    0.291399
     3  C    0.374517
     4  N   -0.049033
     5  H    0.409828
     6  N   -0.318160
     7  N   -0.348719
     8  H    0.411907
     9  N    0.591138
    10  O   -0.373611
    11  O   -0.415148
    12  N    0.488742
    13  O   -0.360813
    14  O   -0.443325
 Sum of Mulliken charges =  -0.00000

 Dipole moment (field-independent basis, Debye):
    X=              1.9552    Y=              3.6040    Z=              0.4750  Tot=              4.1276
 Quadrupole moment (field-independent basis, Debye-Ang):
   XX=            -87.9791   YY=            -62.2197   ZZ=            -64.9951
   XY=              7.7849   XZ=             -0.3045   YZ=             -0.2966

 Normal termination of Gaussian 09 at Fri Aug 27 13:32:44 2021.
