 Gaussian 09, Revision E.01,
 Gaussian 09:  ES64L-G09RevE.01 30-Nov-2015

 ----------------
 #P G4 OPT=calcfc
 ----------------

 ------
 TECSEB
 ------
 Symbolic Z-matrix:
 Charge =  0 Multiplicity = 1

 SCF Done:  E(RB3LYP) =  -701.090270902     A.U. after   15 cycles
 SCF Done:  E(RB3LYP) =  -701.205224503     A.U. after   13 cycles
 SCF Done:  E(RB3LYP) =  -701.288686073     A.U. after   16 cycles
 SCF Done:  E(RB3LYP) =  -701.291248468     A.U. after   14 cycles
 SCF Done:  E(RB3LYP) =  -701.295236477     A.U. after   15 cycles
 SCF Done:  E(RB3LYP) =  -701.289536500     A.U. after   15 cycles
 SCF Done:  E(RB3LYP) =  -701.295679699     A.U. after   12 cycles
 SCF Done:  E(RB3LYP) =  -701.296570230     A.U. after   13 cycles
 SCF Done:  E(RB3LYP) =  -701.296993492     A.U. after   13 cycles
 SCF Done:  E(RB3LYP) =  -701.297341512     A.U. after   13 cycles
 SCF Done:  E(RB3LYP) =  -701.297969704     A.U. after   12 cycles
 SCF Done:  E(RB3LYP) =  -701.297971755     A.U. after   10 cycles
 SCF Done:  E(RB3LYP) =  -701.297972077     A.U. after    8 cycles
 Optimization completed.
    -- Stationary point found.
 Normal termination of Gaussian 09 at Fri Aug 27 10:02:48 2021.

 ----------------------------------------------------------
 #P Geom=AllCheck Guess=TCheck SCRF=Check B3LYP/GTBas3 Freq
 ----------------------------------------------------------

 Structure from the checkpoint file:  "/public/home/users/caep010/.cache/gau_scr/Gau-157833.chk"
 ------
 TECSEB
 ------
 Charge =  0 Multiplicity = 1

 SCF Done:  E(RB3LYP) =  -701.297972077     A.U. after    1 cycles

  Exact polarizability: 177.882  -4.604 143.557   2.436   1.341  67.291
 Approx polarizability: 307.875 -37.516 275.471   8.215  -1.702 110.238

                      1                      2                      3
                      A                      A                      A
 Frequencies --     45.1577                52.6213                82.4461
 Red. masses --      2.6423                 4.6733                 4.8175
 Frc consts  --      0.0032                 0.0076                 0.0193
 IR Inten    --      0.0455                 0.4234                 1.1540

                      4                      5                      6
                      A                      A                      A
 Frequencies --    100.0731               124.0217               192.5929
 Red. masses --      3.2029                 5.1415                 3.2624
 Frc consts  --      0.0189                 0.0466                 0.0713
 IR Inten    --      5.6886                 6.8543                 0.9321

                      7                      8                      9
                      A                      A                      A
 Frequencies --    227.7579               253.4827               271.5154
 Red. masses --      3.5284                 1.2011                 1.6440
 Frc consts  --      0.1078                 0.0455                 0.0714
 IR Inten    --      3.6113                 0.6562                 2.7376

                     10                     11                     12
                      A                      A                      A
 Frequencies --    276.0715               306.6374               351.6471
 Red. masses --      3.7037                 3.6705                 4.4956
 Frc consts  --      0.1663                 0.2033                 0.3275
 IR Inten    --      2.0142                 1.9404                 1.2730

                     13                     14                     15
                      A                      A                      A
 Frequencies --    357.7105               386.5870               408.7546
 Red. masses --      3.2929                 4.0535                 3.8600
 Frc consts  --      0.2482                 0.3569                 0.3800
 IR Inten    --      0.2727                 6.2486                 5.1192

                     16                     17                     18
                      A                      A                      A
 Frequencies --    487.0287               537.4598               564.4593
 Red. masses --      8.3109                 4.6708                 4.5670
 Frc consts  --      1.1615                 0.7949                 0.8573
 IR Inten    --      3.6922                 1.3975                 3.8757

                     19                     20                     21
                      A                      A                      A
 Frequencies --    576.8985               637.0122               645.4095
 Red. masses --      4.7715                 4.2021                 6.9236
 Frc consts  --      0.9356                 1.0047                 1.6992
 IR Inten    --      0.7140                 0.7537                17.5522

                     22                     23                     24
                      A                      A                      A
 Frequencies --    736.7474               750.7643               784.4836
 Red. masses --      4.3602                 4.8063                 5.2656
 Frc consts  --      1.3944                 1.5961                 1.9093
 IR Inten    --     31.2312                12.5423                22.6405

                     25                     26                     27
                      A                      A                      A
 Frequencies --    798.4216               810.7254               844.0688
 Red. masses --      1.5912                 1.3817                 3.2058
 Frc consts  --      0.5976                 0.5351                 1.3457
 IR Inten    --     58.7049                13.1204                 0.2702

                     28                     29                     30
                      A                      A                      A
 Frequencies --    851.4202               925.6564               941.8545
 Red. masses --      1.8907                 1.7722                 1.3658
 Frc consts  --      0.8075                 0.8947                 0.7138
 IR Inten    --     26.8199                28.6745                 0.4860

                     31                     32                     33
                      A                      A                      A
 Frequencies --    946.6984              1029.1187              1058.8782
 Red. masses --      2.3495                 2.9875                 1.5362
 Frc consts  --      1.2407                 1.8642                 1.0148
 IR Inten    --      3.3234                35.4449                 1.2956

                     34                     35                     36
                      A                      A                      A
 Frequencies --   1067.5944              1079.3434              1138.7886
 Red. masses --      1.8981                 3.1577                 1.8216
 Frc consts  --      1.2746                 2.1674                 1.3918
 IR Inten    --      0.3498                42.5197                17.8560

                     37                     38                     39
                      A                      A                      A
 Frequencies --   1153.3213              1183.6803              1221.9976
 Red. masses --      1.5940                 2.0467                 2.2073
 Frc consts  --      1.2492                 1.6896                 1.9420
 IR Inten    --     19.4699                43.8145                 1.2337

                     40                     41                     42
                      A                      A                      A
 Frequencies --   1256.3127              1293.7419              1305.8963
 Red. masses --      3.4311                 4.3549                 1.1367
 Frc consts  --      3.1906                 4.2946                 1.1421
 IR Inten    --     86.5825                23.5888                39.5259

                     43                     44                     45
                      A                      A                      A
 Frequencies --   1350.3293              1382.1620              1391.2742
 Red. masses --      4.8547                 2.7971                 1.9126
 Frc consts  --      5.2155                 3.1483                 2.1813
 IR Inten    --    447.9362               168.1355                41.9847

                     46                     47                     48
                      A                      A                      A
 Frequencies --   1415.3974              1417.3667              1457.9592
 Red. masses --      1.2596                 1.2700                 2.4294
 Frc consts  --      1.4868                 1.5032                 3.0425
 IR Inten    --     17.4890                 0.8688                20.3379

                     49                     50                     51
                      A                      A                      A
 Frequencies --   1477.0615              1489.6214              1492.6859
 Red. masses --      1.1793                 1.0584                 1.1894
 Frc consts  --      1.5159                 1.3837                 1.5614
 IR Inten    --     21.5452                 5.7837                20.9235

                     52                     53                     54
                      A                      A                      A
 Frequencies --   1500.5604              1518.9617              1528.2547
 Red. masses --      1.0494                 2.4272                 1.4772
 Frc consts  --      1.3921                 3.2995                 2.0328
 IR Inten    --      4.3933                99.6493                13.8932

                     55                     56                     57
                      A                      A                      A
 Frequencies --   1531.4522              1592.2850              1633.2003
 Red. masses --      1.5098                 3.7344                 9.3477
 Frc consts  --      2.0863                 5.5784                14.6904
 IR Inten    --     24.8074               261.7498                72.9363

                     58                     59                     60
                      A                      A                      A
 Frequencies --   1639.1824              2991.8094              3041.1975
 Red. masses --      6.9424                 1.0737                 1.0362
 Frc consts  --     10.9904                 5.6623                 5.6468
 IR Inten    --     58.5252                42.9684                18.2881

                     61                     62                     63
                      A                      A                      A
 Frequencies --   3053.0622              3097.7761              3117.1988
 Red. masses --      1.0401                 1.0915                 1.0984
 Frc consts  --      5.7120                 6.1712                 6.2884
 IR Inten    --      8.3070                 1.0173                 8.5853

                     64                     65                     66
                      A                      A                      A
 Frequencies --   3119.4562              3125.0290              3158.6850
 Red. masses --      1.0963                 1.1025                 1.0992
 Frc consts  --      6.2856                 6.3434                 6.4617
 IR Inten    --     33.3195                20.8342                 4.9635

                     67                     68                     69
                      A                      A                      A
 Frequencies --   3247.6050              3259.3673              3440.1180
 Red. masses --      1.0880                 1.0968                 1.0714
 Frc consts  --      6.7610                 6.8651                 7.4706
 IR Inten    --      3.8389                 4.4028                38.2476

 - Thermochemistry -
 -------------------
 Temperature   298.150 Kelvin.  Pressure   1.00000 Atm.
 Atom     1 has atomic number  8 and mass  15.99491

 Molecular mass:   197.08004 amu.
 Principal axes and moments of inertia in atomic units:
                           1         2         3
     Eigenvalues --  1538.260193843.126135232.93011
           X            0.99902   0.04396  -0.00427
           Y           -0.04393   0.99901   0.00701
           Z            0.00458  -0.00681   0.99997
 This molecule is an asymmetric top.
 Rotational symmetry number  1.
 Warning -- assumption of classical behavior for rotation
           may cause significant error
 Rotational temperatures (Kelvin)      0.05631     0.02254     0.01655
 Rotational constants (GHZ):           1.17324     0.46960     0.34488
 Zero-point vibrational energy     517587.8 (Joules/Mol)
                                  123.70645 (Kcal/Mol)
 Warning -- explicit consideration of  19 degrees of freedom as
           vibrations may cause significant error
 Vibrational temperatures:     64.97    75.71   118.62   143.98   178.44
          (Kelvin)            277.10   327.69   364.70   390.65   397.20
                              441.18   505.94   514.66   556.21   588.11
                              700.72   773.28   812.13   830.03   916.52
                              928.60  1060.01  1080.18  1128.70  1148.75
                             1166.45  1214.43  1225.00  1331.81  1355.12
                             1362.09  1480.67  1523.49  1536.03  1552.93
                             1638.46  1659.37  1703.05  1758.18  1807.55
                             1861.40  1878.89  1942.82  1988.62  2001.73
                             2036.44  2039.27  2097.68  2125.16  2143.23
                             2147.64  2158.97  2185.44  2198.81  2203.42
                             2290.94  2349.81  2358.41  4304.54  4375.60
                             4392.67  4457.00  4484.95  4488.20  4496.21
                             4544.64  4672.57  4689.50  4949.56

 Zero-point correction=                           0.197139 (Hartree/Particle)
 Thermal correction to Energy=                    0.210147
 Thermal correction to Enthalpy=                  0.211091
 Thermal correction to Gibbs Free Energy=         0.157007
 Sum of electronic and zero-point Energies=           -701.100833
 Sum of electronic and thermal Energies=              -701.087825
 Sum of electronic and thermal Enthalpies=            -701.086881
 Sum of electronic and thermal Free Energies=         -701.140965

                     E (Thermal)             CV                S
                      KCal/Mol        Cal/Mol-Kelvin    Cal/Mol-Kelvin
 Total                  131.869             48.762            113.829
 Electronic               0.000              0.000              0.000
 Translational            0.889              2.981             41.740
 Rotational               0.889              2.981             31.804
 Vibrational            130.092             42.801             40.285
 Vibration     1          0.595              1.979              5.019
 Vibration     2          0.596              1.977              4.716
 Vibration     3          0.600              1.961              3.832
 Vibration     4          0.604              1.949              3.453
 Vibration     5          0.610              1.929              3.037
 Vibration     6          0.635              1.850              2.203
 Vibration     7          0.651              1.799              1.897
 Vibration     8          0.665              1.757              1.706
 Vibration     9          0.675              1.726              1.587
 Vibration    10          0.678              1.718              1.558
 Vibration    11          0.697              1.661              1.380
 Vibration    12          0.728              1.572              1.159
 Vibration    13          0.733              1.559              1.132
 Vibration    14          0.755              1.499              1.013
 Vibration    15          0.773              1.451              0.931
 Vibration    16          0.843              1.279              0.691
 Vibration    17          0.892              1.167              0.571
 Vibration    18          0.920              1.108              0.515
 Vibration    19          0.933              1.081              0.491

 Optimization completed.
    -- Stationary point found.
 Normal termination of Gaussian 09 at Fri Aug 27 10:07:07 2021.

 -----------------------------------------------------------------
 #P Geom=AllCheck Guess=TCheck SCRF=Check CCSD(T,E4T,FrzG4)/GTBas1
 -----------------------------------------------------------------

 Structure from the checkpoint file:  "/public/home/users/caep010/.cache/gau_scr/Gau-157833.chk"
 ------
 TECSEB
 ------
 Charge =  0 Multiplicity = 1

 SCF Done:  E(RHF) =  -697.060451307     A.U. after   15 cycles
 E2 =    -0.2100959500D+01 EUMP2 =    -0.69916141080616D+03
 CCSD(T)
 CCSD(T)= -0.69929501531D+03
 -699.2021087\CCSD(T)=-699.2950153\RMSD=8.124e-09\PG=C01 [X(C8H11N3O3)]
 Normal termination of Gaussian 09 at Fri Aug 27 13:14:08 2021.

 ---------------------------------------------------------
 #P Geom=AllCheck Guess=TCheck SCRF=Check MP4=FrzG4/GTBas2
 ---------------------------------------------------------

 Structure from the checkpoint file:  "/public/home/users/caep010/.cache/gau_scr/Gau-157833.chk"
 ------
 TECSEB
 ------
 Charge =  0 Multiplicity = 1

 SCF Done:  E(RHF) =  -697.080147604     A.U. after   23 cycles
 E2 =    -0.2129747773D+01 EUMP2 =    -0.69920989537673D+03
 Normal termination of Gaussian 09 at Fri Aug 27 14:39:30 2021.

 ---------------------------------------------------------
 #P Geom=AllCheck Guess=TCheck SCRF=Check MP4=FrzG4/GTBas3
 ---------------------------------------------------------

 Structure from the checkpoint file:  "/public/home/users/caep010/.cache/gau_scr/Gau-157833.chk"
 ------
 TECSEB
 ------
 Charge =  0 Multiplicity = 1

 SCF Done:  E(RHF) =  -697.135691992     A.U. after   13 cycles
 E2 =    -0.2524248767D+01 EUMP2 =    -0.69965994075927D+03
 Normal termination of Gaussian 09 at Sat Aug 28 02:41:30 2021.

 -----------------------------------------------------------
 #P Geom=AllCheck Guess=TCheck SCRF=Check MP2=Full/GTLargeXP
 -----------------------------------------------------------

 Structure from the checkpoint file:  "/public/home/users/caep010/.cache/gau_scr/Gau-157833.chk"
 ------
 TECSEB
 ------
 Charge =  0 Multiplicity = 1

 SCF Done:  E(RHF) =  -697.305740596     A.U. after   17 cycles
 E2 =    -0.3295739068D+01 EUMP2 =    -0.70060147966426D+03
 Normal termination of Gaussian 09 at Sat Aug 28 03:03:27 2021.
 SCF Done:  E(RHF) =  -697.360783149     A.U. after   10 cycles
 Normal termination of Gaussian 09 at Sat Aug 28 03:13:18 2021.

                         Standard orientation:
 ---------------------------------------------------------------------
 Center     Atomic      Atomic             Coordinates (Angstroms)
 Number     Number       Type             X           Y           Z
 ---------------------------------------------------------------------
      1          8           0       -1.723224    2.442241   -0.093837
      2          7           0       -0.677647    1.707444   -0.048056
      3          6           0       -0.813528    0.324085   -0.175916
      4          6           0        0.319259   -0.503343   -0.204786
      5          6           0        1.561887    0.108880    0.017766
      6          6           0        1.681413    1.488292    0.159401
      7          1           0        2.654020    1.933838    0.306083
      8          6           0        0.553832    2.266178    0.105406
      9          1           0        0.536193    3.342212    0.195286
     10          7           0       -2.116441   -0.074867   -0.352673
     11          1           0       -2.672987    0.779536   -0.406190
     12          6           0       -2.744967   -1.072633    0.528525
     13          1           0       -2.653385   -0.773742    1.583621
     14          1           0       -2.233282   -2.031221    0.423371
     15          6           0       -4.215129   -1.231303    0.156275
     16          1           0       -4.756212   -0.286325    0.274475
     17          1           0       -4.691413   -1.972489    0.803745
     18          1           0       -4.320738   -1.556614   -0.882560
     19          7           0        2.804556   -0.663904    0.109232
     20          8           0        2.725920   -1.858630    0.377213
     21          8           0        3.858048   -0.060475   -0.062655
     22          6           0        0.139708   -1.951994   -0.582917
     23          1           0        0.033775   -2.598426    0.293628
     24          1           0        1.002850   -2.320604   -1.134770
     25          1           0       -0.752897   -2.050950   -1.204522
 ---------------------------------------------------------------------

 SCF Done:  E(RHF) =  -697.371658540     A.U. after    8 cycles

 The electronic state is 1-A.
 Alpha  occ. eigenvalues --  -20.61447 -20.61307 -20.52951 -15.86757 -15.74267
 Alpha  occ. eigenvalues --  -15.58221 -11.35451 -11.33486 -11.31390 -11.30442
 Alpha  occ. eigenvalues --  -11.28428 -11.27983 -11.24988 -11.23311  -1.61819
 Alpha  occ. eigenvalues --   -1.47212  -1.41129  -1.27167  -1.22256  -1.14082
 Alpha  occ. eigenvalues --   -1.09344  -1.03625  -1.00854  -0.96382  -0.89450
 Alpha  occ. eigenvalues --   -0.86005  -0.84622  -0.79446  -0.76832  -0.73820
 Alpha  occ. eigenvalues --   -0.72340  -0.70382  -0.69246  -0.67420  -0.65698
 Alpha  occ. eigenvalues --   -0.64016  -0.62078  -0.61189  -0.59982  -0.57758
 Alpha  occ. eigenvalues --   -0.56666  -0.54690  -0.53871  -0.52084  -0.51467
 Alpha  occ. eigenvalues --   -0.50439  -0.49500  -0.46547  -0.45937  -0.44450
 Alpha  occ. eigenvalues --   -0.36551  -0.33190
 Alpha virt. eigenvalues --    0.01341   0.02752   0.03483   0.03838   0.03992
 Alpha virt. eigenvalues --    0.05156   0.05600   0.05892   0.06010   0.06531
 Alpha virt. eigenvalues --    0.06971   0.07939   0.08123   0.08428   0.08783

 Mulliken charges:
               1
     1  O   -0.662721
     2  N    0.128333
     3  C    0.317425
     4  C    0.334156
     5  C    0.164197
     6  C   -0.140174
     7  H    0.273397
     8  C   -0.152495
     9  H    0.260474
    10  N   -0.562883
    11  H    0.366619
    12  C   -0.238977
    13  H    0.168412
    14  H    0.174847
    15  C   -0.540981
    16  H    0.174505
    17  H    0.177287
    18  H    0.178938
    19  N    0.484666
    20  O   -0.412495
    21  O   -0.431285
    22  C   -0.707369
    23  H    0.209583
    24  H    0.218180
    25  H    0.218361
 Sum of Mulliken charges =  -0.00000

 Dipole moment (field-independent basis, Debye):
    X=             -1.9491    Y=             -1.1184    Z=              0.4845  Tot=              2.2988
 Quadrupole moment (field-independent basis, Debye-Ang):
   XX=            -95.2125   YY=            -85.4510   ZZ=            -83.2281
   XY=             16.8083   XZ=             -2.3719   YZ=              2.2402

 Normal termination of Gaussian 09 at Sat Aug 28 04:17:34 2021.
