 Gaussian 09, Revision E.01,
 Gaussian 09:  ES64L-G09RevE.01 30-Nov-2015

 ----------------
 #P G4 OPT=calcfc
 ----------------

 ------
 TEHGUI
 ------
 Symbolic Z-matrix:
 Charge =  0 Multiplicity = 1

 SCF Done:  E(RB3LYP) =  -531.345046211     A.U. after   15 cycles
 SCF Done:  E(RB3LYP) =  -531.430144753     A.U. after   13 cycles
 SCF Done:  E(RB3LYP) =  -531.464434297     A.U. after   14 cycles
 SCF Done:  E(RB3LYP) =  -531.468890667     A.U. after   12 cycles
 SCF Done:  E(RB3LYP) =  -531.469435212     A.U. after   12 cycles
 SCF Done:  E(RB3LYP) =  -531.469505001     A.U. after   11 cycles
 SCF Done:  E(RB3LYP) =  -531.469519004     A.U. after    9 cycles
 SCF Done:  E(RB3LYP) =  -531.469520502     A.U. after    8 cycles
 SCF Done:  E(RB3LYP) =  -531.469520718     A.U. after    7 cycles
 SCF Done:  E(RB3LYP) =  -531.469520823     A.U. after    7 cycles
 SCF Done:  E(RB3LYP) =  -531.469520893     A.U. after    7 cycles
 Optimization completed.
    -- Stationary point found.
 Normal termination of Gaussian 09 at Thu Aug 26 16:41:20 2021.

 ----------------------------------------------------------
 #P Geom=AllCheck Guess=TCheck SCRF=Check B3LYP/GTBas3 Freq
 ----------------------------------------------------------

 Structure from the checkpoint file:  "/public/home/users/caep010/.cache/gau_scr/Gau-173251.chk"
 ------
 TEHGUI
 ------
 Charge =  0 Multiplicity = 1

 SCF Done:  E(RB3LYP) =  -531.469520893     A.U. after    1 cycles

  Exact polarizability: 136.834   2.732 119.990   0.052  -0.156  45.405
 Approx polarizability: 223.336   7.120 224.950   0.404   0.044  73.595

                      1                      2                      3
                      A                      A                      A
 Frequencies --     67.7301                79.7993               118.5990
 Red. masses --      8.3752                 1.0634                 5.3981
 Frc consts  --      0.0226                 0.0040                 0.0447
 IR Inten    --      1.3124                 0.0359                 9.5451

                      4                      5                      6
                      A                      A                      A
 Frequencies --    168.0579               218.2936               234.4645
 Red. masses --      2.9834                 1.4338                 2.9937
 Frc consts  --      0.0496                 0.0403                 0.0970
 IR Inten    --     11.9514               146.8564                33.7223

                      7                      8                      9
                      A                      A                      A
 Frequencies --    331.1871               351.9768               398.4928
 Red. masses --      4.0440                 3.8203                 5.4123
 Frc consts  --      0.2613                 0.2789                 0.5064
 IR Inten    --      0.3088                 7.5837                 0.8301

                     10                     11                     12
                      A                      A                      A
 Frequencies --    407.1006               444.5771               474.9068
 Red. masses --      5.1638                 3.9447                 5.2706
 Frc consts  --      0.5042                 0.4594                 0.7004
 IR Inten    --      2.5803                 1.2095                 1.0532

                     13                     14                     15
                      A                      A                      A
 Frequencies --    546.1863               557.3162               590.9314
 Red. masses --      2.0892                 4.2950                 1.2203
 Frc consts  --      0.3672                 0.7860                 0.2511
 IR Inten    --     20.4242                 1.6602                 4.8809

                     16                     17                     18
                      A                      A                      A
 Frequencies --    691.9291               717.4631               791.7798
 Red. masses --      6.6876                 4.3853                 5.3997
 Frc consts  --      1.8865                 1.3300                 1.9945
 IR Inten    --      5.6151                 0.6314                11.0480

                     19                     20                     21
                      A                      A                      A
 Frequencies --    796.9676               833.2177               835.9102
 Red. masses --      6.1200                 1.5974                 5.6942
 Frc consts  --      2.2903                 0.6534                 2.3442
 IR Inten    --      8.3071                19.3830                 6.8671

                     22                     23                     24
                      A                      A                      A
 Frequencies --    927.7662               936.2927               965.1474
 Red. masses --      1.3924                 3.9720                 1.3032
 Frc consts  --      0.7061                 2.0516                 0.7152
 IR Inten    --      1.7695                14.6301                 0.2969

                     25                     26                     27
                      A                      A                      A
 Frequencies --   1022.8839              1053.6239              1068.0424
 Red. masses --      1.6124                 1.5420                 1.4963
 Frc consts  --      0.9940                 1.0086                 1.0057
 IR Inten    --      4.9690                 5.7658                 2.9820

                     28                     29                     30
                      A                      A                      A
 Frequencies --   1104.9356              1192.4553              1230.9179
 Red. masses --      2.4694                 1.1734                 2.8825
 Frc consts  --      1.7763                 0.9830                 2.5732
 IR Inten    --     43.6227                31.3322                30.6280

                     31                     32                     33
                      A                      A                      A
 Frequencies --   1295.9699              1312.8045              1379.6592
 Red. masses --      2.2765                 2.3912                 3.5222
 Frc consts  --      2.2527                 2.4281                 3.9500
 IR Inten    --    102.1912               115.6945               119.7208

                     34                     35                     36
                      A                      A                      A
 Frequencies --   1392.4258              1418.5143              1446.2140
 Red. masses --      5.7951                 1.2613                 3.2586
 Frc consts  --      6.6200                 1.4954                 4.0155
 IR Inten    --     88.1904                 0.2294                49.1653

                     37                     38                     39
                      A                      A                      A
 Frequencies --   1484.8829              1496.8621              1527.0880
 Red. masses --      1.0434                 1.1464                 2.3619
 Frc consts  --      1.3554                 1.5134                 3.2452
 IR Inten    --      4.9085                 0.3538                43.9081

                     40                     41                     42
                      A                      A                      A
 Frequencies --   1575.1650              1604.8028              1621.3983
 Red. masses --      3.8394                 6.0033                 1.9024
 Frc consts  --      5.6126                 9.1093                 2.9467
 IR Inten    --    189.3121               247.7119                 6.3038

                     43                     44                     45
                      A                      A                      A
 Frequencies --   1681.2178              3027.7350              3077.8664
 Red. masses --      6.7954                 1.0381                 1.0999
 Frc consts  --     11.3165                 5.6072                 6.1390
 IR Inten    --    137.4572                36.6807                18.3463

                     46                     47                     48
                      A                      A                      A
 Frequencies --   3118.3115              3162.5242              3180.6451
 Red. masses --      1.0991                 1.0857                 1.0945
 Frc consts  --      6.2971                 6.3975                 6.5237
 IR Inten    --     11.4002                 8.8984                16.0542

                     49                     50                     51
                      A                      A                      A
 Frequencies --   3226.3866              3575.8003              3727.6746
 Red. masses --      1.0897                 1.0460                 1.1025
 Frc consts  --      6.6831                 7.8801                 9.0263
 IR Inten    --      3.0190                88.2574                70.2568

 - Thermochemistry -
 -------------------
 Temperature   298.150 Kelvin.  Pressure   1.00000 Atm.
 Atom     1 has atomic number  8 and mass  15.99491

 Molecular mass:   152.05858 amu.
 Principal axes and moments of inertia in atomic units:
                           1         2         3
     Eigenvalues --   996.319361930.879222915.67385
           X            0.99830   0.05826  -0.00042
           Y           -0.05826   0.99830  -0.00153
           Z            0.00033   0.00155   1.00000
 This molecule is an asymmetric top.
 Rotational symmetry number  1.
 Warning -- assumption of classical behavior for rotation
           may cause significant error
 Rotational temperatures (Kelvin)      0.08693     0.04486     0.02971
 Rotational constants (GHZ):           1.81141     0.93467     0.61898
 Zero-point vibrational energy     385753.2 (Joules/Mol)
                                   92.19723 (Kcal/Mol)
 Warning -- explicit consideration of  15 degrees of freedom as
           vibrations may cause significant error
 Vibrational temperatures:     97.45   114.81   170.64   241.80   314.08
          (Kelvin)            337.34   476.50   506.42   573.34   585.73
                              639.65   683.28   785.84   801.85   850.22
                              995.53  1032.27  1139.19  1146.66  1198.81
                             1202.69  1334.85  1347.11  1388.63  1471.70
                             1515.93  1536.67  1589.75  1715.68  1771.01
                             1864.61  1888.83  1985.02  2003.39  2040.92
                             2080.78  2136.41  2153.65  2197.14  2266.31
                             2308.95  2332.83  2418.89  4356.23  4428.36
                             4486.55  4550.16  4576.23  4642.04  5144.77
                             5363.29

 Zero-point correction=                           0.146926 (Hartree/Particle)
 Thermal correction to Energy=                    0.156976
 Thermal correction to Enthalpy=                  0.157921
 Thermal correction to Gibbs Free Energy=         0.111222
 Sum of electronic and zero-point Energies=           -531.322595
 Sum of electronic and thermal Energies=              -531.312544
 Sum of electronic and thermal Enthalpies=            -531.311600
 Sum of electronic and thermal Free Energies=         -531.358299

                     E (Thermal)             CV                S
                      KCal/Mol        Cal/Mol-Kelvin    Cal/Mol-Kelvin
 Total                   98.504             37.688             98.286
 Electronic               0.000              0.000              0.000
 Translational            0.889              2.981             40.967
 Rotational               0.889              2.981             30.107
 Vibrational             96.727             31.727             27.211
 Vibration     1          0.598              1.970              4.218
 Vibration     2          0.600              1.963              3.896
 Vibration     3          0.609              1.934              3.123
 Vibration     4          0.625              1.882              2.457
 Vibration     5          0.646              1.813              1.973
 Vibration     6          0.654              1.788              1.845
 Vibration     7          0.714              1.613              1.254
 Vibration     8          0.729              1.571              1.157
 Vibration     9          0.765              1.473              0.968
 Vibration    10          0.772              1.455              0.937
 Vibration    11          0.804              1.373              0.812
 Vibration    12          0.832              1.306              0.724
 Vibration    13          0.901              1.148              0.552
 Vibration    14          0.913              1.124              0.529
 Vibration    15          0.948              1.051              0.466

 Normal termination of Gaussian 09 at Thu Aug 26 16:43:24 2021.

 -----------------------------------------------------------------
 #P Geom=AllCheck Guess=TCheck SCRF=Check CCSD(T,E4T,FrzG4)/GTBas1
 -----------------------------------------------------------------

 Structure from the checkpoint file:  "/public/home/users/caep010/.cache/gau_scr/Gau-173251.chk"
 ------
 TEHGUI
 ------
 Charge =  0 Multiplicity = 1

 SCF Done:  E(RHF) =  -528.235742924     A.U. after   14 cycles
 E2 =    -0.1596247281D+01 EUMP2 =    -0.52983199020493D+03
 CCSD(T)
 CCSD(T)= -0.52993851335D+03
 29.8698423\CCSD=-529.8671537\CCSD(T)=-529.9385134\RMSD=8.066e-09\PG=C0
 Normal termination of Gaussian 09 at Thu Aug 26 17:23:28 2021.

 ---------------------------------------------------------
 #P Geom=AllCheck Guess=TCheck SCRF=Check MP4=FrzG4/GTBas2
 ---------------------------------------------------------

 Structure from the checkpoint file:  "/public/home/users/caep010/.cache/gau_scr/Gau-173251.chk"
 ------
 TEHGUI
 ------
 Charge =  0 Multiplicity = 1

 SCF Done:  E(RHF) =  -528.250861613     A.U. after   16 cycles
 E2 =    -0.1616555663D+01 EUMP2 =    -0.52986741727546D+03
 Normal termination of Gaussian 09 at Thu Aug 26 17:36:17 2021.

 ---------------------------------------------------------
 #P Geom=AllCheck Guess=TCheck SCRF=Check MP4=FrzG4/GTBas3
 ---------------------------------------------------------

 Structure from the checkpoint file:  "/public/home/users/caep010/.cache/gau_scr/Gau-173251.chk"
 ------
 TEHGUI
 ------
 Charge =  0 Multiplicity = 1

 SCF Done:  E(RHF) =  -528.293453765     A.U. after   13 cycles
 E2 =    -0.1913954335D+01 EUMP2 =    -0.53020740809978D+03
 Normal termination of Gaussian 09 at Thu Aug 26 19:22:03 2021.

 -----------------------------------------------------------
 #P Geom=AllCheck Guess=TCheck SCRF=Check MP2=Full/GTLargeXP
 -----------------------------------------------------------

 Structure from the checkpoint file:  "/public/home/users/caep010/.cache/gau_scr/Gau-173251.chk"
 ------
 TEHGUI
 ------
 Charge =  0 Multiplicity = 1

 SCF Done:  E(RHF) =  -528.420463795     A.U. after   14 cycles
 E2 =    -0.2511589745D+01 EUMP2 =    -0.53093205353968D+03
 Normal termination of Gaussian 09 at Thu Aug 26 19:36:05 2021.
 SCF Done:  E(RHF) =  -528.462900139     A.U. after   10 cycles
 Normal termination of Gaussian 09 at Thu Aug 26 19:41:11 2021.

                         Standard orientation:
 ---------------------------------------------------------------------
 Center     Atomic      Atomic             Coordinates (Angstroms)
 Number     Number       Type             X           Y           Z
 ---------------------------------------------------------------------
      1          8           0        1.633346   -2.180103    0.010898
      2          7           0        1.697172   -0.955964   -0.001859
      3          6           0        0.463164   -0.195801    0.005938
      4          6           0        0.461185    1.221916    0.006950
      5          6           0       -0.814277    1.836673   -0.002817
      6          6           0       -1.976793    1.100742   -0.006875
      7          6           0       -1.967685   -0.308734   -0.001247
      8          8           0        2.776619   -0.344375   -0.024311
      9          6           0       -0.734185   -0.928176    0.004697
     10          6           0       -3.255085   -1.093743   -0.003318
     11          1           0       -3.866921   -0.864627    0.876994
     12          7           0        1.578252    1.990599    0.040272
     13          1           0        1.492167    2.981834   -0.097570
     14          1           0       -3.061266   -2.169139   -0.003090
     15          1           0       -3.864424   -0.864341   -0.885177
     16          1           0       -2.928353    1.625367   -0.014362
     17          1           0        2.470036    1.532380   -0.060612
     18          1           0       -0.857080    2.921486   -0.003607
     19          1           0       -0.649787   -2.006845    0.005867
 ---------------------------------------------------------------------

 SCF Done:  E(RHF) =  -528.471073537     A.U. after    8 cycles

 The electronic state is 1-A.
 Alpha  occ. eigenvalues --  -20.59081 -20.58836 -15.84674 -15.58269 -11.32611
 Alpha  occ. eigenvalues --  -11.29165 -11.26633 -11.26084 -11.24893 -11.24735
 Alpha  occ. eigenvalues --  -11.23419  -1.59250  -1.38458  -1.25906  -1.16848
 Alpha  occ. eigenvalues --   -1.09419  -1.04463  -0.95955  -0.93553  -0.85123
 Alpha  occ. eigenvalues --   -0.82452  -0.75428  -0.72771  -0.72232  -0.71546
 Alpha  occ. eigenvalues --   -0.71173  -0.63533  -0.63242  -0.61724  -0.58807
 Alpha  occ. eigenvalues --   -0.55543  -0.55261  -0.54230  -0.51648  -0.48954
 Alpha  occ. eigenvalues --   -0.48319  -0.46546  -0.44665  -0.37359  -0.30761
 Alpha virt. eigenvalues --    0.02883   0.03462   0.04132   0.04627   0.05098
 Alpha virt. eigenvalues --    0.05620   0.06058   0.07274   0.07655   0.08078
 Alpha virt. eigenvalues --    0.08566   0.08636   0.09281   0.09578   0.10164

 Mulliken charges:
               1
     1  O   -0.450654
     2  N    0.491933
     3  C    0.100124
     4  C    0.293662
     5  C   -0.217126
     6  C   -0.204558
     7  C    0.164908
     8  O   -0.469043
     9  C   -0.210100
    10  C   -0.617736
    11  H    0.186025
    12  N   -0.761768
    13  H    0.322522
    14  H    0.172037
    15  H    0.185195
    16  H    0.211183
    17  H    0.379416
    18  H    0.181066
    19  H    0.242916
 Sum of Mulliken charges =  -0.00000

 Dipole moment (field-independent basis, Debye):
    X=             -3.7153    Y=              3.7833    Z=             -0.3247  Tot=              5.3124
 Quadrupole moment (field-independent basis, Debye-Ang):
   XX=            -66.3677   YY=            -59.4795   ZZ=            -67.2963
   XY=              7.7767   XZ=             -0.6387   YZ=             -0.9258

 Normal termination of Gaussian 09 at Thu Aug 26 20:15:56 2021.
