 Gaussian 09, Revision E.01,
 Gaussian 09:  ES64L-G09RevE.01 30-Nov-2015

 ----------------
 #P G4 OPT=calcfc
 ----------------

 ------
 TITKUC
 ------
 Symbolic Z-matrix:
 Charge =  0 Multiplicity = 1

 SCF Done:  E(RB3LYP) =  -611.024941099     A.U. after   15 cycles
 SCF Done:  E(RB3LYP) =  -611.155047541     A.U. after   14 cycles
 SCF Done:  E(RB3LYP) =  -611.264505547     A.U. after   14 cycles
 SCF Done:  E(RB3LYP) =  -611.270202752     A.U. after   13 cycles
 SCF Done:  E(RB3LYP) =  -611.270803881     A.U. after   11 cycles
 SCF Done:  E(RB3LYP) =  -611.270519818     A.U. after   11 cycles
 SCF Done:  E(RB3LYP) =  -611.270848374     A.U. after    9 cycles
 SCF Done:  E(RB3LYP) =  -611.260065162     A.U. after   13 cycles
 SCF Done:  E(RB3LYP) =  -611.270918640     A.U. after    9 cycles
 SCF Done:  E(RB3LYP) =  -611.270935936     A.U. after   10 cycles
 SCF Done:  E(RB3LYP) =  -611.270937590     A.U. after    9 cycles
 SCF Done:  E(RB3LYP) =  -611.270937683     A.U. after    7 cycles
 Optimization completed.
    -- Stationary point found.
 Normal termination of Gaussian 09 at Wed Aug 25 09:56:47 2021.

 ----------------------------------------------------------
 #P Geom=AllCheck Guess=TCheck SCRF=Check B3LYP/GTBas3 Freq
 ----------------------------------------------------------

 Structure from the checkpoint file:  "/public/home/users/caep010/.cache/gau_scr/Gau-176173.chk"
 ------
 TITKUC
 ------
 Charge =  0 Multiplicity = 1

 SCF Done:  E(RB3LYP) =  -611.270937683     A.U. after    1 cycles

  Exact polarizability: 264.799 -11.979 116.685   2.072  -1.158  73.998
 Approx polarizability: 392.222 -34.472 190.382   5.231  -2.933 116.611

                      1                      2                      3
                      A                      A                      A
 Frequencies --     40.0985                52.6069                71.3153
 Red. masses --      3.9430                 3.8454                 4.7747
 Frc consts  --      0.0037                 0.0063                 0.0143
 IR Inten    --      0.3787                 0.3077                 0.6133

                      4                      5                      6
                      A                      A                      A
 Frequencies --     78.9916               118.0872               147.1741
 Red. masses --      3.4230                 3.2462                 1.1438
 Frc consts  --      0.0126                 0.0267                 0.0146
 IR Inten    --      0.7587                 0.0100                 0.1299

                      7                      8                      9
                      A                      A                      A
 Frequencies --    171.4247               180.3325               243.0245
 Red. masses --      2.8892                 4.9856                 2.0247
 Frc consts  --      0.0500                 0.0955                 0.0705
 IR Inten    --      0.6375                 0.4671                 1.0537

                     10                     11                     12
                      A                      A                      A
 Frequencies --    254.8721               281.7152               336.1829
 Red. masses --      3.0587                 2.1283                 3.2943
 Frc consts  --      0.1171                 0.0995                 0.2194
 IR Inten    --      0.5803                 3.0638                 0.7572

                     13                     14                     15
                      A                      A                      A
 Frequencies --    352.5844               395.0109               472.3989
 Red. masses --      4.6291                 4.1209                 2.9011
 Frc consts  --      0.3391                 0.3788                 0.3814
 IR Inten    --      2.3100                 1.8673                 0.0357

                     16                     17                     18
                      A                      A                      A
 Frequencies --    530.8210               560.9732               580.4015
 Red. masses --      4.8083                 5.9737                 1.8180
 Frc consts  --      0.7983                 1.1076                 0.3608
 IR Inten    --      1.3372                 2.9296                 1.5994

                     19                     20                     21
                      A                      A                      A
 Frequencies --    674.7758               722.4967               764.2714
 Red. masses --      3.6626                 3.8005                 7.2131
 Frc consts  --      0.9825                 1.1689                 2.4824
 IR Inten    --      3.9763                 4.5134                12.7954

                     22                     23                     24
                      A                      A                      A
 Frequencies --    820.7807               841.4778               870.4416
 Red. masses --      1.8393                 1.7985                 2.7581
 Frc consts  --      0.7300                 0.7503                 1.2312
 IR Inten    --      2.8715                12.8206                28.7787

                     25                     26                     27
                      A                      A                      A
 Frequencies --    880.4881               893.2034               923.6369
 Red. masses --      2.1864                 3.5077                 2.3694
 Frc consts  --      0.9987                 1.6488                 1.1909
 IR Inten    --     12.4913                 0.7511                 2.3187

                     28                     29                     30
                      A                      A                      A
 Frequencies --    933.3970               950.7655               982.2534
 Red. masses --      1.4694                 1.2997                 1.6099
 Frc consts  --      0.7543                 0.6922                 0.9152
 IR Inten    --      1.5443                 3.1819                 3.5122

                     31                     32                     33
                      A                      A                      A
 Frequencies --    998.3843              1015.9671              1044.2270
 Red. masses --      2.0538                 1.2962                 1.8966
 Frc consts  --      1.2061                 0.7883                 1.2185
 IR Inten    --    148.1545                19.3204                 1.4582

                     34                     35                     36
                      A                      A                      A
 Frequencies --   1066.7618              1124.9038              1145.2936
 Red. masses --      1.3955                 2.2289                 1.6377
 Frc consts  --      0.9357                 1.6617                 1.2657
 IR Inten    --      0.8870                24.6571                42.2660

                     37                     38                     39
                      A                      A                      A
 Frequencies --   1159.7925              1193.8225              1199.1986
 Red. masses --      2.6395                 1.3834                 1.4950
 Frc consts  --      2.0919                 1.1616                 1.2667
 IR Inten    --    102.4810                 3.0676                10.5418

                     40                     41                     42
                      A                      A                      A
 Frequencies --   1230.7458              1249.0382              1266.2600
 Red. masses --      1.9866                 1.2469                 1.2229
 Frc consts  --      1.7730                 1.1462                 1.1553
 IR Inten    --    259.9020                20.1540                 7.5249

                     43                     44                     45
                      A                      A                      A
 Frequencies --   1313.5110              1321.6782              1328.4748
 Red. masses --      1.5012                 1.8051                 1.4945
 Frc consts  --      1.5260                 1.8578                 1.5540
 IR Inten    --    107.2877                68.0827                40.7293

                     46                     47                     48
                      A                      A                      A
 Frequencies --   1347.2355              1350.1242              1355.4450
 Red. masses --      1.6982                 2.5566                 1.3787
 Frc consts  --      1.8160                 2.7458                 1.4923
 IR Inten    --    419.2557               697.1453                38.1215

                     49                     50                     51
                      A                      A                      A
 Frequencies --   1381.0533              1408.0570              1426.8646
 Red. masses --      1.4364                 1.5468                 1.5400
 Frc consts  --      1.6141                 1.8069                 1.8472
 IR Inten    --      8.5120                88.7921                25.6398

                     52                     53                     54
                      A                      A                      A
 Frequencies --   1445.4312              1467.8971              1485.3101
 Red. masses --      3.4308                 1.0428                 1.1098
 Frc consts  --      4.2231                 1.3238                 1.4425
 IR Inten    --    116.8477                 4.3076                34.1705

                     55                     56                     57
                      A                      A                      A
 Frequencies --   1491.4629              1499.2035              1518.9452
 Red. masses --      1.0905                 1.0953                 1.0820
 Frc consts  --      1.4292                 1.4505                 1.4708
 IR Inten    --      4.5418                10.0416                 4.6144

                     58                     59                     60
                      A                      A                      A
 Frequencies --   1529.4881              1584.8721              1673.2865
 Red. masses --      1.1008                12.8077                 5.2301
 Frc consts  --      1.5172                18.9544                 8.6278
 IR Inten    --     47.0143               158.0562               651.8561

                     61                     62                     63
                      A                      A                      A
 Frequencies --   1684.6009              2992.7347              3001.5331
 Red. masses --      6.4372                 1.0695                 1.0658
 Frc consts  --     10.7632                 5.6437                 5.6574
 IR Inten    --    443.2208                89.2205                28.7333

                     64                     65                     66
                      A                      A                      A
 Frequencies --   3043.0278              3045.4499              3053.5254
 Red. masses --      1.0900                 1.0363                 1.0705
 Frc consts  --      5.9470                 5.6630                 5.8807
 IR Inten    --      6.7174                19.5633                12.3083

                     67                     68                     69
                      A                      A                      A
 Frequencies --   3060.8812              3074.4009              3098.7942
 Red. masses --      1.0694                 1.0906                 1.0998
 Frc consts  --      5.9033                 6.0734                 6.2225
 IR Inten    --     37.6055                38.4229                10.0084

                     70                     71                     72
                      A                      A                      A
 Frequencies --   3112.7452              3120.6136              3130.0501
 Red. masses --      1.0976                 1.1044                 1.1004
 Frc consts  --      6.2661                 6.3364                 6.3517
 IR Inten    --     32.1391                31.0663                11.4236

                     73                     74                     75
                      A                      A                      A
 Frequencies --   3159.7976              3175.9655              3192.0989
 Red. masses --      1.0891                 1.0873                 1.0860
 Frc consts  --      6.4069                 6.4616                 6.5199
 IR Inten    --      4.2339                 2.9175                13.1691

 - Thermochemistry -
 -------------------
 Temperature   298.150 Kelvin.  Pressure   1.00000 Atm.
 Atom     1 has atomic number  8 and mass  15.99491

 Molecular mass:   182.10553 amu.
 Principal axes and moments of inertia in atomic units:
                           1         2         3
     Eigenvalues --   691.102876988.509067602.27129
           X            0.99996  -0.00854  -0.00020
           Y            0.00854   0.99996  -0.00037
           Z            0.00021   0.00037   1.00000
 This molecule is an asymmetric top.
 Rotational symmetry number  1.
 Warning -- assumption of classical behavior for rotation
           may cause significant error
 Rotational temperatures (Kelvin)      0.12533     0.01239     0.01139
 Rotational constants (GHZ):           2.61139     0.25824     0.23740
 Zero-point vibrational energy     596308.3 (Joules/Mol)
                                  142.52110 (Kcal/Mol)
 Warning -- explicit consideration of  18 degrees of freedom as
           vibrations may cause significant error
 Vibrational temperatures:     57.69    75.69   102.61   113.65   169.90
          (Kelvin)            211.75   246.64   259.46   349.66   366.70
                              405.32   483.69   507.29   568.33   679.68
                              763.73   807.11   835.07   970.85  1039.51
                             1099.61  1180.92  1210.70  1252.37  1266.82
                             1285.12  1328.91  1342.95  1367.94  1413.24
                             1436.45  1461.75  1502.41  1534.83  1618.48
                             1647.82  1668.68  1717.64  1725.38  1770.77
                             1797.09  1821.86  1889.85  1901.60  1911.38
                             1938.37  1942.53  1950.18  1987.03  2025.88
                             2052.94  2079.65  2111.97  2137.03  2145.88
                             2157.02  2185.42  2200.59  2280.27  2407.48
                             2423.76  4305.87  4318.53  4378.23  4381.72
                             4393.34  4403.92  4423.37  4458.47  4478.54
                             4489.86  4503.44  4546.24  4569.50  4592.71

 Zero-point correction=                           0.227122 (Hartree/Particle)
 Thermal correction to Energy=                    0.240230
 Thermal correction to Enthalpy=                  0.241174
 Thermal correction to Gibbs Free Energy=         0.186121
 Sum of electronic and zero-point Energies=           -611.043816
 Sum of electronic and thermal Energies=              -611.030708
 Sum of electronic and thermal Enthalpies=            -611.029764
 Sum of electronic and thermal Free Energies=         -611.084817

                     E (Thermal)             CV                S
                      KCal/Mol        Cal/Mol-Kelvin    Cal/Mol-Kelvin
 Total                  150.746             47.756            115.868
 Electronic               0.000              0.000              0.000
 Translational            0.889              2.981             41.505
 Rotational               0.889              2.981             31.974
 Vibrational            148.969             41.795             42.390
 Vibration     1          0.594              1.981              5.254
 Vibration     2          0.596              1.977              4.717
 Vibration     3          0.598              1.968              4.117
 Vibration     4          0.600              1.963              3.916
 Vibration     5          0.608              1.934              3.131
 Vibration     6          0.617              1.906              2.708
 Vibration     7          0.626              1.878              2.420
 Vibration     8          0.629              1.866              2.325
 Vibration     9          0.659              1.774              1.781
 Vibration    10          0.665              1.755              1.697
 Vibration    11          0.681              1.707              1.523
 Vibration    12          0.717              1.603              1.230
 Vibration    13          0.729              1.570              1.155
 Vibration    14          0.762              1.481              0.981
 Vibration    15          0.829              1.311              0.731
 Vibration    16          0.886              1.182              0.585
 Vibration    17          0.917              1.116              0.522
 Vibration    18          0.937              1.074              0.485

 Optimization completed.
    -- Stationary point found.
 Normal termination of Gaussian 09 at Wed Aug 25 10:00:21 2021.

 -----------------------------------------------------------------
 #P Geom=AllCheck Guess=TCheck SCRF=Check CCSD(T,E4T,FrzG4)/GTBas1
 -----------------------------------------------------------------

 Structure from the checkpoint file:  "/public/home/users/caep010/.cache/gau_scr/Gau-176173.chk"
 ------
 TITKUC
 ------
 Charge =  0 Multiplicity = 1

 SCF Done:  E(RHF) =  -607.431379273     A.U. after   14 cycles
 E2 =    -0.1863074308D+01 EUMP2 =    -0.60929445358123D+03
 CCSD(T)
 CCSD(T)= -0.60944575146D+03
 SD=-609.3682626\CCSD(T)=-609.4457515\RMSD=8.341e-09\PG=C01 [X(C9H14N2O
 Normal termination of Gaussian 09 at Wed Aug 25 12:10:42 2021.

 ---------------------------------------------------------
 #P Geom=AllCheck Guess=TCheck SCRF=Check MP4=FrzG4/GTBas2
 ---------------------------------------------------------

 Structure from the checkpoint file:  "/public/home/users/caep010/.cache/gau_scr/Gau-176173.chk"
 ------
 TITKUC
 ------
 Charge =  0 Multiplicity = 1

 SCF Done:  E(RHF) =  -607.446716649     A.U. after   18 cycles
 E2 =    -0.1885911398D+01 EUMP2 =    -0.60933262804771D+03
 Normal termination of Gaussian 09 at Wed Aug 25 12:54:46 2021.

 ---------------------------------------------------------
 #P Geom=AllCheck Guess=TCheck SCRF=Check MP4=FrzG4/GTBas3
 ---------------------------------------------------------

 Structure from the checkpoint file:  "/public/home/users/caep010/.cache/gau_scr/Gau-176173.chk"
 ------
 TITKUC
 ------
 Charge =  0 Multiplicity = 1

 SCF Done:  E(RHF) =  -607.497437878     A.U. after   12 cycles
 E2 =    -0.2258226485D+01 EUMP2 =    -0.60975566436235D+03
 Normal termination of Gaussian 09 at Wed Aug 25 21:50:59 2021.

 -----------------------------------------------------------
 #P Geom=AllCheck Guess=TCheck SCRF=Check MP2=Full/GTLargeXP
 -----------------------------------------------------------

 Structure from the checkpoint file:  "/public/home/users/caep010/.cache/gau_scr/Gau-176173.chk"
 ------
 TITKUC
 ------
 Charge =  0 Multiplicity = 1

 SCF Done:  E(RHF) =  -607.639691552     A.U. after   14 cycles
 E2 =    -0.2962263944D+01 EUMP2 =    -0.61060195549653D+03
 Normal termination of Gaussian 09 at Wed Aug 25 22:06:59 2021.
 SCF Done:  E(RHF) =  -607.687953159     A.U. after   10 cycles
 Normal termination of Gaussian 09 at Wed Aug 25 22:15:14 2021.

                         Standard orientation:
 ---------------------------------------------------------------------
 Center     Atomic      Atomic             Coordinates (Angstroms)
 Number     Number       Type             X           Y           Z
 ---------------------------------------------------------------------
      1          8           0       -4.833904    0.213877   -0.040125
      2          7           0       -3.777117   -0.421899   -0.007925
      3          6           0       -2.551190    0.357240   -0.012279
      4          6           0       -1.385996   -0.332136    0.021550
      5          6           0       -2.749969    1.838550   -0.054727
      6          6           0       -0.061618    0.190765    0.024503
      7          1           0        0.091981    1.263401   -0.004357
      8          1           0       -3.334441    2.186076    0.802634
      9          6           0        1.016307   -0.647323    0.060091
     10          7           0        2.316523   -0.296025    0.061597
     11          6           0        2.783265    1.088721    0.021753
     12          1           0        2.314725    1.680104    0.817273
     13          6           0        4.306869    0.972272    0.189684
     14          6           0        4.624756   -0.428081   -0.363050
     15          1           0        5.572046   -0.830576    0.001429
     16          1           0        0.845317   -1.721196    0.086561
     17          1           0        2.508112    1.552336   -0.936261
     18          1           0        4.571209    1.026730    1.250884
     19          1           0        4.665658   -0.403970   -1.457027
     20          1           0       -3.301241    2.140868   -0.950448
     21          1           0       -1.786851    2.353036   -0.049860
     22          1           0        4.842413    1.771247   -0.326786
     23          8           0       -3.724331   -1.653383    0.026529
     24          6           0        3.419628   -1.258031    0.095094
     25          1           0        3.209872   -2.109740   -0.559242
     26          1           0        3.572619   -1.645765    1.112967
     27          1           0       -1.493699   -1.412903    0.049585
 ---------------------------------------------------------------------

 SCF Done:  E(RHF) =  -607.697523412     A.U. after    8 cycles

 The electronic state is 1-A.
 Alpha  occ. eigenvalues --  -20.56568 -20.55914 -15.81619 -15.60170 -11.31035
 Alpha  occ. eigenvalues --  -11.28802 -11.28433 -11.26709 -11.26506 -11.25252
 Alpha  occ. eigenvalues --  -11.25191 -11.22847 -11.22451  -1.56333  -1.35655
 Alpha  occ. eigenvalues --   -1.29888  -1.13782  -1.10666  -1.04027  -1.01983
 Alpha  occ. eigenvalues --   -0.95020  -0.93634  -0.86283  -0.83509  -0.78401
 Alpha  occ. eigenvalues --   -0.75463  -0.73793  -0.70321  -0.69293  -0.68545
 Alpha  occ. eigenvalues --   -0.68141  -0.64643  -0.61615  -0.60333  -0.59890
 Alpha  occ. eigenvalues --   -0.57169  -0.56486  -0.56029  -0.54136  -0.52308
 Alpha  occ. eigenvalues --   -0.51748  -0.50915  -0.50008  -0.48210  -0.46616
 Alpha  occ. eigenvalues --   -0.45547  -0.42584  -0.40771  -0.28860
 Alpha virt. eigenvalues --    0.02165   0.02812   0.03258   0.03459   0.04459
 Alpha virt. eigenvalues --    0.05380   0.05544   0.05638   0.05854   0.06212
 Alpha virt. eigenvalues --    0.06870   0.07455   0.07888   0.08037   0.08737

 Mulliken charges:
               1
     1  O   -0.460830
     2  N    0.586426
     3  C   -0.059615
     4  C    0.051726
     5  C   -0.595995
     6  C   -0.212227
     7  H    0.176949
     8  H    0.193743
     9  C   -0.095510
    10  N   -0.053352
    11  C   -0.273095
    12  H    0.174857
    13  C   -0.312231
    14  C   -0.289973
    15  H    0.178367
    16  H    0.198371
    17  H    0.168785
    18  H    0.164812
    19  H    0.162922
    20  H    0.193208
    21  H    0.171369
    22  H    0.178066
    23  O   -0.499718
    24  C   -0.313519
    25  H    0.175087
    26  H    0.169606
    27  H    0.221772
 Sum of Mulliken charges =  -0.00000

 Dipole moment (field-independent basis, Debye):
    X=             10.3312    Y=              1.5426    Z=              0.0128  Tot=             10.4457
 Quadrupole moment (field-independent basis, Debye-Ang):
   XX=            -98.6559   YY=            -76.8162   ZZ=            -79.4860
   XY=             -8.8496   XZ=             -0.0027   YZ=             -0.0711

 Normal termination of Gaussian 09 at Wed Aug 25 23:08:13 2021.
