 Gaussian 09, Revision E.01,
 Gaussian 09:  ES64L-G09RevE.01 30-Nov-2015

 ----------------
 #P G4 OPT=calcfc
 ----------------

 ------
 TISJUB
 ------
 Symbolic Z-matrix:
 Charge =  0 Multiplicity = 1

 SCF Done:  E(RB3LYP) =  -716.506922910     A.U. after   18 cycles
 SCF Done:  E(RB3LYP) =  -716.561346365     A.U. after   13 cycles
 SCF Done:  E(RB3LYP) =  -716.566710460     A.U. after   15 cycles
 SCF Done:  E(RB3LYP) =  -716.566298215     A.U. after   15 cycles
 SCF Done:  E(RB3LYP) =  -716.573737194     A.U. after   12 cycles
 SCF Done:  E(RB3LYP) =  -716.575026642     A.U. after   13 cycles
 SCF Done:  E(RB3LYP) =  -716.575051734     A.U. after   10 cycles
 SCF Done:  E(RB3LYP) =  -716.575054051     A.U. after    9 cycles
 SCF Done:  E(RB3LYP) =  -716.575054165     A.U. after    8 cycles
 Optimization completed.
    -- Stationary point found.
 Normal termination of Gaussian 09 at Thu Aug 26 05:42:26 2021.

 ----------------------------------------------------------
 #P Geom=AllCheck Guess=TCheck SCRF=Check B3LYP/GTBas3 Freq
 ----------------------------------------------------------

 Structure from the checkpoint file:  "/public/home/users/caep010/.cache/gau_scr/Gau-7740.chk"
 ------
 TISJUB
 ------
 Charge =  0 Multiplicity = 1

 SCF Done:  E(RB3LYP) =  -716.575054165     A.U. after    1 cycles

  Exact polarizability: 144.093  -5.328 112.547  -0.001   0.001  41.418
 Approx polarizability: 264.110 -26.705 232.320  -0.002   0.003  68.760

                      1                      2                      3
                      A                      A                      A
 Frequencies --     56.5432                74.7981               120.9953
 Red. masses --     15.5813                 9.9465                 9.3309
 Frc consts  --      0.0294                 0.0328                 0.0805
 IR Inten    --      0.4716                 0.0591                 6.1529

                      4                      5                      6
                      A                      A                      A
 Frequencies --    150.5721               165.3117               298.8389
 Red. masses --      6.0518                12.5645                 8.5098
 Frc consts  --      0.0808                 0.2023                 0.4478
 IR Inten    --      5.1377                 3.2102                19.7558

                      7                      8                      9
                      A                      A                      A
 Frequencies --    319.9883               346.6542               385.5279
 Red. masses --      8.0890                10.8956                 8.6672
 Frc consts  --      0.4880                 0.7714                 0.7590
 IR Inten    --      0.6101                 2.8672                21.7415

                     10                     11                     12
                      A                      A                      A
 Frequencies --    450.0717               453.4704               526.1286
 Red. masses --     12.4441                 3.9107                10.4097
 Frc consts  --      1.4852                 0.4738                 1.6978
 IR Inten    --      1.2650                 0.0409                11.5625

                     13                     14                     15
                      A                      A                      A
 Frequencies --    541.2643               609.6905               670.8276
 Red. masses --      3.7964                 5.4925                 8.0962
 Frc consts  --      0.6553                 1.2029                 2.1466
 IR Inten    --      3.4503                12.7256                23.9228

                     16                     17                     18
                      A                      A                      A
 Frequencies --    680.6585               694.0048               778.5806
 Red. masses --      7.5918                 5.6046                 5.9318
 Frc consts  --      2.0723                 1.5905                 2.1186
 IR Inten    --      8.2693                21.3366                 9.2485

                     19                     20                     21
                      A                      A                      A
 Frequencies --    794.5841               795.6979               845.7062
 Red. masses --      8.3896                 5.1615                 6.9960
 Frc consts  --      3.1208                 1.9254                 2.9481
 IR Inten    --     27.7608                 5.7453                 0.3035

                     22                     23                     24
                      A                      A                      A
 Frequencies --    875.7080               889.2283               927.0175
 Red. masses --      1.6214                 1.0710                 7.8271
 Frc consts  --      0.7326                 0.4989                 3.9630
 IR Inten    --     15.0420                73.2272                26.4477

                     25                     26                     27
                      A                      A                      A
 Frequencies --    985.4099               998.0236              1075.8514
 Red. masses --      1.3220                 1.4244                 1.7277
 Frc consts  --      0.7563                 0.8359                 1.1782
 IR Inten    --      0.0129                 8.0792                15.5292

                     28                     29                     30
                      A                      A                      A
 Frequencies --   1133.8094              1170.4204              1222.1138
 Red. masses --      1.4764                 4.6004                 3.9025
 Frc consts  --      1.1182                 3.7131                 3.4342
 IR Inten    --     10.7120               128.5485                36.6960

                     31                     32                     33
                      A                      A                      A
 Frequencies --   1264.3160              1280.0466              1339.0239
 Red. masses --      1.6363                 7.6188                 4.4475
 Frc consts  --      1.5411                 7.3551                 4.6983
 IR Inten    --      5.7194                 7.7268               221.7497

                     34                     35                     36
                      A                      A                      A
 Frequencies --   1389.2180              1467.2214              1487.1539
 Red. masses --     12.4858                 5.0687                 2.9522
 Frc consts  --     14.1973                 6.4289                 3.8469
 IR Inten    --    319.4375               126.6949                58.6368

                     37                     38                     39
                      A                      A                      A
 Frequencies --   1534.9974              1588.6231              1647.5923
 Red. masses --      1.3824                 9.0573                 8.5348
 Frc consts  --      1.9190                13.4675                13.6504
 IR Inten    --    320.6783                37.6525                48.1720

                     40                     41                     42
                      A                      A                      A
 Frequencies --   1661.2190              1845.6621              3148.4223
 Red. masses --      9.4056                 8.7552                 1.0713
 Frc consts  --     15.2928                17.5720                 6.2569
 IR Inten    --    168.6531               271.9339               501.2875

                     43                     44                     45
                      A                      A                      A
 Frequencies --   3242.8080              3247.2939              3256.9242
 Red. masses --      1.0895                 1.0909                 1.0965
 Frc consts  --      6.7505                 6.7777                 6.8532
 IR Inten    --      6.9180                25.7981                 4.0252

 - Thermochemistry -
 -------------------
 Temperature   298.150 Kelvin.  Pressure   1.00000 Atm.
 Atom     1 has atomic number  6 and mass  12.00000

 Molecular mass:   184.01202 amu.
 Principal axes and moments of inertia in atomic units:
                           1         2         3
     Eigenvalues --  1150.552643309.256844459.80942
           X            1.00000   0.00248  -0.00000
           Y           -0.00248   1.00000  -0.00000
           Z            0.00000   0.00000   1.00000
 This molecule is an asymmetric top.
 Rotational symmetry number  1.
 Warning -- assumption of classical behavior for rotation
           may cause significant error
 Rotational temperatures (Kelvin)      0.07528     0.02617     0.01942
 Rotational constants (GHZ):           1.56859     0.54536     0.40467
 Zero-point vibrational energy     289723.7 (Joules/Mol)
                                   69.24562 (Kcal/Mol)
 Warning -- explicit consideration of  14 degrees of freedom as
           vibrations may cause significant error
 Vibrational temperatures:     81.35   107.62   174.08   216.64   237.85
          (Kelvin)            429.96   460.39   498.76   554.69   647.55
                              652.44   756.98   778.76   877.21   965.17
                              979.31   998.52  1120.20  1143.23  1144.83
                             1216.78  1259.95  1279.40  1333.77  1417.78
                             1435.93  1547.91  1631.30  1683.97  1758.35
                             1819.07  1841.70  1926.55  1998.77  2111.00
                             2139.68  2208.52  2285.67  2370.51  2390.12
                             2655.49  4529.87  4665.67  4672.13  4685.98

 Zero-point correction=                           0.110350 (Hartree/Particle)
 Thermal correction to Energy=                    0.120391
 Thermal correction to Enthalpy=                  0.121335
 Thermal correction to Gibbs Free Energy=         0.073594
 Sum of electronic and zero-point Energies=           -716.464704
 Sum of electronic and thermal Energies=              -716.454663
 Sum of electronic and thermal Enthalpies=            -716.453719
 Sum of electronic and thermal Free Energies=         -716.501460

                     E (Thermal)             CV                S
                      KCal/Mol        Cal/Mol-Kelvin    Cal/Mol-Kelvin
 Total                   75.546             37.479            100.479
 Electronic               0.000              0.000              0.000
 Translational            0.889              2.981             41.536
 Rotational               0.889              2.981             31.208
 Vibrational             73.769             31.518             27.735
 Vibration     1          0.596              1.975              4.574
 Vibration     2          0.599              1.966              4.023
 Vibration     3          0.609              1.932              3.084
 Vibration     4          0.618              1.902              2.665
 Vibration     5          0.624              1.885              2.488
 Vibration     6          0.692              1.676              1.423
 Vibration     7          0.706              1.635              1.310
 Vibration     8          0.725              1.582              1.181
 Vibration     9          0.754              1.501              1.017
 Vibration    10          0.809              1.361              0.796
 Vibration    11          0.812              1.353              0.785
 Vibration    12          0.881              1.192              0.596
 Vibration    13          0.896              1.159              0.563
 Vibration    14          0.969              1.011              0.433

 Optimization completed.
    -- Stationary point found.
 Normal termination of Gaussian 09 at Thu Aug 26 05:45:05 2021.

 -----------------------------------------------------------------
 #P Geom=AllCheck Guess=TCheck SCRF=Check CCSD(T,E4T,FrzG4)/GTBas1
 -----------------------------------------------------------------

 Structure from the checkpoint file:  "/public/home/users/caep010/.cache/gau_scr/Gau-7740.chk"
 ------
 TISJUB
 ------
 Charge =  0 Multiplicity = 1

 SCF Done:  E(RHF) =  -712.545092195     A.U. after   15 cycles
 E2 =    -0.2013193185D+01 EUMP2 =    -0.71455828537936D+03
 CCSD(T)
 CCSD(T)= -0.71465256954D+03
 4\CCSD(T)=-714.6525695\RMSD=7.318e-09\PG=C01 [X(C6H4N2O5)]\\@
 Normal termination of Gaussian 09 at Thu Aug 26 07:13:32 2021.

 ---------------------------------------------------------
 #P Geom=AllCheck Guess=TCheck SCRF=Check MP4=FrzG4/GTBas2
 ---------------------------------------------------------

 Structure from the checkpoint file:  "/public/home/users/caep010/.cache/gau_scr/Gau-7740.chk"
 ------
 TISJUB
 ------
 Charge =  0 Multiplicity = 1

 SCF Done:  E(RHF) =  -712.565435277     A.U. after   16 cycles
 E2 =    -0.2040284521D+01 EUMP2 =    -0.71460571979826D+03
 Normal termination of Gaussian 09 at Thu Aug 26 07:45:01 2021.

 ---------------------------------------------------------
 #P Geom=AllCheck Guess=TCheck SCRF=Check MP4=FrzG4/GTBas3
 ---------------------------------------------------------

 Structure from the checkpoint file:  "/public/home/users/caep010/.cache/gau_scr/Gau-7740.chk"
 ------
 TISJUB
 ------
 Charge =  0 Multiplicity = 1

 SCF Done:  E(RHF) =  -712.619954062     A.U. after   13 cycles
 E2 =    -0.2403137728D+01 EUMP2 =    -0.71502309179034D+03
 Normal termination of Gaussian 09 at Thu Aug 26 11:30:02 2021.

 -----------------------------------------------------------
 #P Geom=AllCheck Guess=TCheck SCRF=Check MP2=Full/GTLargeXP
 -----------------------------------------------------------

 Structure from the checkpoint file:  "/public/home/users/caep010/.cache/gau_scr/Gau-7740.chk"
 ------
 TISJUB
 ------
 Charge =  0 Multiplicity = 1

 SCF Done:  E(RHF) =  -712.803866905     A.U. after   16 cycles
 E2 =    -0.3133979541D+01 EUMP2 =    -0.71593784644679D+03
 Normal termination of Gaussian 09 at Thu Aug 26 11:52:00 2021.
 SCF Done:  E(RHF) =  -712.860926254     A.U. after    9 cycles
 Normal termination of Gaussian 09 at Thu Aug 26 11:57:40 2021.

                         Standard orientation:
 ---------------------------------------------------------------------
 Center     Atomic      Atomic             Coordinates (Angstroms)
 Number     Number       Type             X           Y           Z
 ---------------------------------------------------------------------
      1          6           0       -0.978475   -0.165191   -0.000041
      2          6           0       -2.173500   -1.103175   -0.000036
      3          8           0       -1.982320   -2.292178   -0.000425
      4          7           0       -1.133623    1.203919   -0.000085
      5          8           0       -2.293558    1.756388   -0.000114
      6          6           0       -0.033471    2.018693   -0.000086
      7          1           0       -0.278034    3.070901   -0.000107
      8          6           0        1.239814    1.505219   -0.000044
      9          1           0        2.099991    2.160180   -0.000045
     10          8           0       -3.367420   -0.539534    0.000525
     11          1           0       -3.236412    0.450037    0.000369
     12          6           0        0.297112   -0.707947   -0.000015
     13          1           0        0.388856   -1.785554    0.000003
     14          6           0        1.401249    0.123044   -0.000009
     15          7           0        2.754821   -0.448705    0.000064
     16          8           0        3.690146    0.341009    0.000046
     17          8           0        2.848258   -1.666426    0.000133
 ---------------------------------------------------------------------

 SCF Done:  E(RHF) =  -712.872179647     A.U. after    7 cycles

 The electronic state is 1-A.
 Alpha  occ. eigenvalues --  -20.63793 -20.63635 -20.60944 -20.58432 -20.56282
 Alpha  occ. eigenvalues --  -15.89137 -15.80150 -11.41861 -11.36626 -11.36229
 Alpha  occ. eigenvalues --  -11.35382 -11.33368 -11.32901  -1.64300  -1.52390
 Alpha  occ. eigenvalues --   -1.47307  -1.43770  -1.38343  -1.27875  -1.17745
 Alpha  occ. eigenvalues --   -1.13906  -1.03258  -0.97700  -0.91729  -0.85855
 Alpha  occ. eigenvalues --   -0.82536  -0.79523  -0.76959  -0.75890  -0.75488
 Alpha  occ. eigenvalues --   -0.74693  -0.71217  -0.70070  -0.67727  -0.66208
 Alpha  occ. eigenvalues --   -0.64017  -0.62200  -0.60102  -0.54832  -0.53503
 Alpha  occ. eigenvalues --   -0.53414  -0.49501  -0.49287  -0.48888  -0.48358
 Alpha  occ. eigenvalues --   -0.43064  -0.39963
 Alpha virt. eigenvalues --   -0.02194   0.02171   0.02747   0.04011   0.04161
 Alpha virt. eigenvalues --    0.04480   0.05569   0.05852   0.06057   0.06486
 Alpha virt. eigenvalues --    0.06696   0.07968   0.08317   0.09024   0.09083

 Mulliken charges:
               1
     1  C    0.147602
     2  C    0.506175
     3  O   -0.543000
     4  N    0.132488
     5  O   -0.611795
     6  C   -0.128408
     7  H    0.268885
     8  C   -0.116709
     9  H    0.286863
    10  O   -0.565441
    11  H    0.454187
    12  C   -0.039256
    13  H    0.324395
    14  C    0.195674
    15  N    0.514951
    16  O   -0.418715
    17  O   -0.407897
 Sum of Mulliken charges =  -0.00000

 Dipole moment (field-independent basis, Debye):
    X=              1.9936    Y=              4.7948    Z=              0.0003  Tot=              5.1927
 Quadrupole moment (field-independent basis, Debye-Ang):
   XX=            -98.9230   YY=            -77.9483   ZZ=            -71.6064
   XY=              1.2855   XZ=             -0.0008   YZ=             -0.0012

 Normal termination of Gaussian 09 at Thu Aug 26 12:35:31 2021.
