 Gaussian 09, Revision E.01,
 Gaussian 09:  ES64L-G09RevE.01 30-Nov-2015

 ----------------
 #P G4 OPT=calcfc
 ----------------

 ------
 TECSAX
 ------
 Symbolic Z-matrix:
 Charge =  0 Multiplicity = 1

 SCF Done:  E(RB3LYP) =  -701.145449949     A.U. after   17 cycles
 SCF Done:  E(RB3LYP) =  -701.246340358     A.U. after   14 cycles
 SCF Done:  E(RB3LYP) =  -701.304344602     A.U. after   14 cycles
 SCF Done:  E(RB3LYP) =  -701.306448243     A.U. after   12 cycles
 SCF Done:  E(RB3LYP) =  -701.306625587     A.U. after   13 cycles
 SCF Done:  E(RB3LYP) =  -701.306652851     A.U. after   12 cycles
 SCF Done:  E(RB3LYP) =  -701.306659308     A.U. after   11 cycles
 SCF Done:  E(RB3LYP) =  -701.306659567     A.U. after    9 cycles
 SCF Done:  E(RB3LYP) =  -701.306659493     A.U. after    8 cycles
 Optimization completed.
    -- Stationary point found.
 Normal termination of Gaussian 09 at Thu Aug 26 16:35:02 2021.

 ----------------------------------------------------------
 #P Geom=AllCheck Guess=TCheck SCRF=Check B3LYP/GTBas3 Freq
 ----------------------------------------------------------

 Structure from the checkpoint file:  "/public/home/users/caep010/.cache/gau_scr/Gau-226655.chk"
 ------
 TECSAX
 ------
 Charge =  0 Multiplicity = 1

 SCF Done:  E(RB3LYP) =  -701.306659493     A.U. after    2 cycles

  Exact polarizability: 181.777   4.073 148.039  -5.905   4.800  67.158
 Approx polarizability: 311.571  45.746 296.005 -14.578  13.652 106.265

                      1                      2                      3
                      A                      A                      A
 Frequencies --     35.4075                43.8862                64.2278
 Red. masses --      7.9639                 3.9292                 2.9295
 Frc consts  --      0.0059                 0.0045                 0.0071
 IR Inten    --      0.6013                 2.2158                 0.1905

                      4                      5                      6
                      A                      A                      A
 Frequencies --     96.1422               152.1806               164.9024
 Red. masses --      6.8095                 2.5704                 3.1431
 Frc consts  --      0.0371                 0.0351                 0.0504
 IR Inten    --      3.0407                 1.1726                 0.8392

                      7                      8                      9
                      A                      A                      A
 Frequencies --    230.2392               231.1724               261.7732
 Red. masses --      1.2115                 1.4656                 3.0886
 Frc consts  --      0.0378                 0.0461                 0.1247
 IR Inten    --      0.2008                 0.7862                 0.1927

                     10                     11                     12
                      A                      A                      A
 Frequencies --    283.1710               327.8662               342.4988
 Red. masses --      3.0555                 3.7633                 4.5122
 Frc consts  --      0.1444                 0.2384                 0.3119
 IR Inten    --      6.5716                 0.4636                 3.8118

                     13                     14                     15
                      A                      A                      A
 Frequencies --    365.8868               383.7757               443.1892
 Red. masses --      8.0346                 5.8455                 3.2849
 Frc consts  --      0.6337                 0.5073                 0.3801
 IR Inten    --      1.0572                 2.6255                16.6583

                     16                     17                     18
                      A                      A                      A
 Frequencies --    468.9818               485.3445               504.1434
 Red. masses --      3.3497                 6.0076                 2.2324
 Frc consts  --      0.4341                 0.8338                 0.3343
 IR Inten    --      3.2965                 0.5019                34.5319

                     19                     20                     21
                      A                      A                      A
 Frequencies --    559.1481               622.7122               636.0653
 Red. masses --      1.5449                 5.4201                 4.9315
 Frc consts  --      0.2846                 1.2383                 1.1755
 IR Inten    --     37.6153                 4.5695                10.6624

                     22                     23                     24
                      A                      A                      A
 Frequencies --    676.2762               736.8474               739.1827
 Red. masses --      5.4372                 5.6217                 5.4128
 Frc consts  --      1.4651                 1.7984                 1.7425
 IR Inten    --     21.2536                 2.2758                 1.0219

                     25                     26                     27
                      A                      A                      A
 Frequencies --    782.4106               783.3232               837.4079
 Red. masses --      5.0414                 1.4591                 4.0235
 Frc consts  --      1.8183                 0.5275                 1.6624
 IR Inten    --     11.9507                10.3396                13.2843

                     28                     29                     30
                      A                      A                      A
 Frequencies --    879.1748               890.2858               896.8202
 Red. masses --      1.4120                 2.7748                 1.5131
 Frc consts  --      0.6430                 1.2958                 0.7170
 IR Inten    --      1.3610                 2.6306                21.7860

                     31                     32                     33
                      A                      A                      A
 Frequencies --    922.3698              1031.8641              1061.1471
 Red. masses --      2.3639                 1.5655                 1.4829
 Frc consts  --      1.1849                 0.9821                 0.9838
 IR Inten    --      1.6241                 9.1283                 2.4392

                     34                     35                     36
                      A                      A                      A
 Frequencies --   1065.3704              1084.4271              1122.4334
 Red. masses --      2.9817                 2.9256                 2.0771
 Frc consts  --      1.9940                 2.0271                 1.5418
 IR Inten    --     13.4545                65.1650                40.1957

                     37                     38                     39
                      A                      A                      A
 Frequencies --   1164.3799              1195.3323              1237.2484
 Red. masses --      1.9339                 2.1958                 2.3520
 Frc consts  --      1.5448                 1.8485                 2.1213
 IR Inten    --     13.3439                 4.5537                 6.1366

                     40                     41                     42
                      A                      A                      A
 Frequencies --   1264.7377              1293.3625              1329.7002
 Red. masses --      2.0415                 2.5221                 1.2104
 Frc consts  --      1.9240                 2.4857                 1.2609
 IR Inten    --    100.1913                76.6938                34.3688

                     43                     44                     45
                      A                      A                      A
 Frequencies --   1366.6894              1388.1432              1402.8899
 Red. masses --      8.0374                 1.3791                 4.6637
 Frc consts  --      8.8452                 1.5657                 5.4079
 IR Inten    --    494.0909                44.6078                 4.2357

                     46                     47                     48
                      A                      A                      A
 Frequencies --   1410.8048              1422.3526              1432.6081
 Red. masses --      1.2502                 1.2170                 2.8334
 Frc consts  --      1.4661                 1.4506                 3.4262
 IR Inten    --     12.8537                 0.7694                 1.0488

                     49                     50                     51
                      A                      A                      A
 Frequencies --   1473.1839              1483.8464              1489.7940
 Red. masses --      1.0450                 1.2877                 1.1441
 Frc consts  --      1.3362                 1.6705                 1.4961
 IR Inten    --      5.9310                16.5931                43.6551

                     52                     53                     54
                      A                      A                      A
 Frequencies --   1491.2958              1499.2068              1508.1178
 Red. masses --      1.0712                 1.6796                 1.0986
 Frc consts  --      1.4036                 2.2243                 1.4722
 IR Inten    --      1.0160                 2.6439                11.0682

                     55                     56                     57
                      A                      A                      A
 Frequencies --   1562.1786              1578.9915              1629.0784
 Red. masses --      7.6785                 3.8751                11.8511
 Frc consts  --     11.0405                 5.6923                18.5307
 IR Inten    --     16.0282               319.9866               289.3060

                     58                     59                     60
                      A                      A                      A
 Frequencies --   1682.3810              3038.7706              3042.0876
 Red. masses --      7.2024                 1.0619                 1.0366
 Frc consts  --     12.0110                 5.7771                 5.6523
 IR Inten    --    222.6052                30.0004                18.1994

                     61                     62                     63
                      A                      A                      A
 Frequencies --   3052.9616              3083.5657              3116.0457
 Red. masses --      1.0356                 1.1000                 1.1016
 Frc consts  --      5.6869                 6.1622                 6.3023
 IR Inten    --     18.4162                 8.4106                27.8287

                     64                     65                     66
                      A                      A                      A
 Frequencies --   3121.5778              3123.6948              3128.2650
 Red. masses --      1.1032                 1.0997                 1.1026
 Frc consts  --      6.3335                 6.3218                 6.3575
 IR Inten    --     29.7184                 4.8826                14.2432

                     67                     68                     69
                      A                      A                      A
 Frequencies --   3240.5713              3254.5725              3545.5679
 Red. masses --      1.0914                 1.0894                 1.0744
 Frc consts  --      6.7527                 6.7990                 7.9574
 IR Inten    --      0.1117                 7.1060                57.2954

 - Thermochemistry -
 -------------------
 Temperature   298.150 Kelvin.  Pressure   1.00000 Atm.
 Atom     1 has atomic number  8 and mass  15.99491

 Molecular mass:   197.08004 amu.
 Principal axes and moments of inertia in atomic units:
                           1         2         3
     Eigenvalues --  1814.125293536.172315149.03129
           X            0.99624  -0.08655   0.00248
           Y            0.08656   0.99624  -0.00288
           Z           -0.00222   0.00308   0.99999
 This molecule is an asymmetric top.
 Rotational symmetry number  1.
 Warning -- assumption of classical behavior for rotation
           may cause significant error
 Rotational temperatures (Kelvin)      0.04774     0.02449     0.01682
 Rotational constants (GHZ):           0.99483     0.51037     0.35050
 Zero-point vibrational energy     515985.6 (Joules/Mol)
                                  123.32352 (Kcal/Mol)
 Warning -- explicit consideration of  19 degrees of freedom as
           vibrations may cause significant error
 Vibrational temperatures:     50.94    63.14    92.41   138.33   218.95
          (Kelvin)            237.26   331.26   332.61   376.63   407.42
                              471.73   492.78   526.43   552.17   637.65
                              674.76   698.30   725.35   804.49   895.94
                              915.16   973.01  1060.16  1063.52  1125.71
                             1127.03  1204.84  1264.93  1280.92  1290.32
                             1327.08  1484.62  1526.75  1532.83  1560.25
                             1614.93  1675.28  1719.81  1780.12  1819.67
                             1860.86  1913.14  1966.36  1997.23  2018.44
                             2029.83  2046.45  2061.20  2119.58  2134.92
                             2143.48  2145.64  2157.02  2169.84  2247.62
                             2271.81  2343.88  2420.57  4372.11  4376.88
                             4392.53  4436.56  4483.29  4491.25  4494.29
                             4500.87  4662.45  4682.60  5101.27

 Zero-point correction=                           0.196529 (Hartree/Particle)
 Thermal correction to Energy=                    0.209777
 Thermal correction to Enthalpy=                  0.210721
 Thermal correction to Gibbs Free Energy=         0.155733
 Sum of electronic and zero-point Energies=           -701.110131
 Sum of electronic and thermal Energies=              -701.096882
 Sum of electronic and thermal Enthalpies=            -701.095938
 Sum of electronic and thermal Free Energies=         -701.150926

                     E (Thermal)             CV                S
                      KCal/Mol        Cal/Mol-Kelvin    Cal/Mol-Kelvin
 Total                  131.637             49.455            115.732
 Electronic               0.000              0.000              0.000
 Translational            0.889              2.981             41.740
 Rotational               0.889              2.981             31.869
 Vibrational            129.860             43.494             42.123
 Vibration     1          0.594              1.982              5.501
 Vibration     2          0.595              1.980              5.075
 Vibration     3          0.597              1.971              4.323
 Vibration     4          0.603              1.952              3.531
 Vibration     5          0.619              1.900              2.645
 Vibration     6          0.623              1.886              2.493
 Vibration     7          0.652              1.795              1.877
 Vibration     8          0.653              1.793              1.870
 Vibration     9          0.669              1.743              1.650
 Vibration    10          0.682              1.705              1.514
 Vibration    11          0.711              1.620              1.271
 Vibration    12          0.722              1.591              1.200
 Vibration    13          0.739              1.542              1.097
 Vibration    14          0.753              1.505              1.024
 Vibration    15          0.803              1.376              0.817
 Vibration    16          0.826              1.319              0.740
 Vibration    17          0.841              1.283              0.696
 Vibration    18          0.859              1.241              0.648
 Vibration    19          0.915              1.120              0.526

 Optimization completed.
    -- Stationary point found.
 Normal termination of Gaussian 09 at Thu Aug 26 16:39:20 2021.

 -----------------------------------------------------------------
 #P Geom=AllCheck Guess=TCheck SCRF=Check CCSD(T,E4T,FrzG4)/GTBas1
 -----------------------------------------------------------------

 Structure from the checkpoint file:  "/public/home/users/caep010/.cache/gau_scr/Gau-226655.chk"
 ------
 TECSAX
 ------
 Charge =  0 Multiplicity = 1

 SCF Done:  E(RHF) =  -697.068495372     A.U. after   15 cycles
 E2 =    -0.2098337978D+01 EUMP2 =    -0.69916683334983D+03
 CCSD(T)
 CCSD(T)= -0.69930019988D+03
 33085\CCSD=-699.2077423\CCSD(T)=-699.3001999\RMSD=9.707e-09\PG=C01 [X(
 Normal termination of Gaussian 09 at Thu Aug 26 19:57:39 2021.

 ---------------------------------------------------------
 #P Geom=AllCheck Guess=TCheck SCRF=Check MP4=FrzG4/GTBas2
 ---------------------------------------------------------

 Structure from the checkpoint file:  "/public/home/users/caep010/.cache/gau_scr/Gau-226655.chk"
 ------
 TECSAX
 ------
 Charge =  0 Multiplicity = 1

 SCF Done:  E(RHF) =  -697.088271609     A.U. after   22 cycles
 E2 =    -0.2126025440D+01 EUMP2 =    -0.69921429704924D+03
 Normal termination of Gaussian 09 at Thu Aug 26 21:14:45 2021.

 ---------------------------------------------------------
 #P Geom=AllCheck Guess=TCheck SCRF=Check MP4=FrzG4/GTBas3
 ---------------------------------------------------------

 Structure from the checkpoint file:  "/public/home/users/caep010/.cache/gau_scr/Gau-226655.chk"
 ------
 TECSAX
 ------
 Charge =  0 Multiplicity = 1

 SCF Done:  E(RHF) =  -697.144350180     A.U. after   13 cycles
 E2 =    -0.2521598560D+01 EUMP2 =    -0.69966594874031D+03
 Normal termination of Gaussian 09 at Fri Aug 27 08:27:10 2021.

 -----------------------------------------------------------
 #P Geom=AllCheck Guess=TCheck SCRF=Check MP2=Full/GTLargeXP
 -----------------------------------------------------------

 Structure from the checkpoint file:  "/public/home/users/caep010/.cache/gau_scr/Gau-226655.chk"
 ------
 TECSAX
 ------
 Charge =  0 Multiplicity = 1

 SCF Done:  E(RHF) =  -697.314672422     A.U. after   15 cycles
 E2 =    -0.3293313757D+01 EUMP2 =    -0.70060798617872D+03
 Normal termination of Gaussian 09 at Fri Aug 27 08:47:15 2021.
 SCF Done:  E(RHF) =  -697.369805260     A.U. after   10 cycles
 Normal termination of Gaussian 09 at Fri Aug 27 08:56:56 2021.

                         Standard orientation:
 ---------------------------------------------------------------------
 Center     Atomic      Atomic             Coordinates (Angstroms)
 Number     Number       Type             X           Y           Z
 ---------------------------------------------------------------------
      1          8           0        1.594753    2.613087   -0.034291
      2          7           0        0.712550    1.684458   -0.047830
      3          6           0        1.136178    0.371306   -0.227028
      4          6           0        0.181094   -0.633312   -0.224407
      5          6           0       -1.167775   -0.329883   -0.064019
      6          6           0       -1.608224    0.993960    0.106571
      7          1           0        0.468115   -1.666224   -0.348706
      8          6           0       -0.609364    1.955782    0.106285
      9          1           0       -0.806342    3.011203    0.232202
     10          7           0        2.468374    0.252814   -0.407333
     11          1           0        2.944627    1.138162   -0.274123
     12          6           0        3.194603   -1.001658   -0.440197
     13          1           0        4.151687   -0.803465   -0.931705
     14          1           0        2.658032   -1.704105   -1.088801
     15          6           0        3.432093   -1.627826    0.939420
     16          1           0        2.486335   -1.848856    1.442797
     17          1           0        3.990507   -2.563802    0.839878
     18          7           0       -2.092174   -1.466652   -0.079177
     19          8           0       -1.613908   -2.588724   -0.216381
     20          8           0       -3.292255   -1.242513    0.044950
     21          6           0       -3.030597    1.457304    0.290444
     22          1           0       -3.656320    1.177944   -0.560068
     23          1           0       -3.490258    1.002643    1.170778
     24          1           0       -3.050947    2.544422    0.402544
     25          1           0        4.006548   -0.951102    1.578960
 ---------------------------------------------------------------------

 SCF Done:  E(RHF) =  -697.380711077     A.U. after    8 cycles

 The electronic state is 1-A.
 Alpha  occ. eigenvalues --  -20.61252 -20.60996 -20.52333 -15.86587 -15.73327
 Alpha  occ. eigenvalues --  -15.59157 -11.35702 -11.33397 -11.31070 -11.29141
 Alpha  occ. eigenvalues --  -11.28723 -11.27993 -11.24597 -11.23482  -1.61564
 Alpha  occ. eigenvalues --   -1.46563  -1.40832  -1.27926  -1.22178  -1.13528
 Alpha  occ. eigenvalues --   -1.09403  -1.03797  -1.00606  -0.95912  -0.90321
 Alpha  occ. eigenvalues --   -0.87119  -0.84045  -0.78993  -0.76756  -0.73273
 Alpha  occ. eigenvalues --   -0.73223  -0.70668  -0.67955  -0.67105  -0.65968
 Alpha  occ. eigenvalues --   -0.65317  -0.61380  -0.60055  -0.59067  -0.58230
 Alpha  occ. eigenvalues --   -0.57554  -0.56175  -0.54117  -0.51827  -0.50968
 Alpha  occ. eigenvalues --   -0.50075  -0.49966  -0.46596  -0.46157  -0.44116
 Alpha  occ. eigenvalues --   -0.36424  -0.31472
 Alpha virt. eigenvalues --    0.01247   0.02962   0.03281   0.03771   0.04523
 Alpha virt. eigenvalues --    0.04958   0.05159   0.05422   0.06798   0.07109
 Alpha virt. eigenvalues --    0.07224   0.07502   0.07750   0.08105   0.08189

 Mulliken charges:
               1
     1  O   -0.680413
     2  N    0.107798
     3  C    0.282573
     4  C   -0.139104
     5  C    0.206872
     6  C    0.269461
     7  H    0.272625
     8  C   -0.122433
     9  H    0.250048
    10  N   -0.522314
    11  H    0.390646
    12  C   -0.266378
    13  H    0.197431
    14  H    0.178065
    15  C   -0.510363
    16  H    0.173211
    17  H    0.172628
    18  N    0.504740
    19  O   -0.442023
    20  O   -0.423579
    21  C   -0.676878
    22  H    0.211761
    23  H    0.211047
    24  H    0.181353
    25  H    0.173227
 Sum of Mulliken charges =  -0.00000

 Dipole moment (field-independent basis, Debye):
    X=              1.6109    Y=             -0.2447    Z=              0.2069  Tot=              1.6425
 Quadrupole moment (field-independent basis, Debye-Ang):
   XX=            -80.8287   YY=            -95.6400   ZZ=            -83.0840
   XY=            -20.3325   XZ=             -1.1115   YZ=              0.8010

 Normal termination of Gaussian 09 at Fri Aug 27 09:59:56 2021.
