 Gaussian 09, Revision E.01,
 Gaussian 09:  ES64L-G09RevE.01 30-Nov-2015

 ----------------
 #P G4 OPT=calcfc
 ----------------

 ------
 TENZOD
 ------
 Symbolic Z-matrix:
 Charge =  0 Multiplicity = 1

 SCF Done:  E(RB3LYP) =  -706.500069790     A.U. after   15 cycles
 SCF Done:  E(RB3LYP) =  -706.557780369     A.U. after   15 cycles
 SCF Done:  E(RB3LYP) =  -706.565867042     A.U. after   16 cycles
 SCF Done:  E(RB3LYP) =  -706.565205136     A.U. after   15 cycles
 SCF Done:  E(RB3LYP) =  -706.567317219     A.U. after   12 cycles
 SCF Done:  E(RB3LYP) =  -706.567359230     A.U. after   14 cycles
 SCF Done:  E(RB3LYP) =  -706.567489825     A.U. after   14 cycles
 SCF Done:  E(RB3LYP) =  -706.567499511     A.U. after   13 cycles
 SCF Done:  E(RB3LYP) =  -706.567500473     A.U. after    9 cycles
 SCF Done:  E(RB3LYP) =  -706.567500735     A.U. after    9 cycles
 SCF Done:  E(RB3LYP) =  -706.567500764     A.U. after    7 cycles
 Optimization completed.
    -- Stationary point found.
 Normal termination of Gaussian 09 at Fri Aug 27 09:08:39 2021.

 ----------------------------------------------------------
 #P Geom=AllCheck Guess=TCheck SCRF=Check B3LYP/GTBas3 Freq
 ----------------------------------------------------------

 Structure from the checkpoint file:  "/public/home/users/caep010/.cache/gau_scr/Gau-182134.chk"
 ------
 TENZOD
 ------
 Charge =  0 Multiplicity = 1

 SCF Done:  E(RB3LYP) =  -706.567500764     A.U. after    1 cycles

  Exact polarizability: 106.279   0.468  89.522  -0.753  -6.587  43.631
 Approx polarizability: 180.598   0.559 169.935   0.168 -27.044  83.070

                      1                      2                      3
                      A                      A                      A
 Frequencies --     25.0191                72.8821               102.4202
 Red. masses --     14.9738                 7.9245                 1.1244
 Frc consts  --      0.0055                 0.0248                 0.0069
 IR Inten    --      0.5909                 3.0052                42.6365

                      4                      5                      6
                      A                      A                      A
 Frequencies --    149.6315               163.6952               180.0485
 Red. masses --      6.9103                15.1045                13.2431
 Frc consts  --      0.0912                 0.2385                 0.2529
 IR Inten    --      1.4569                 0.7948                 0.2687

                      7                      8                      9
                      A                      A                      A
 Frequencies --    213.6919               296.4225               373.4419
 Red. masses --      7.8283                 6.9679                11.7981
 Frc consts  --      0.2106                 0.3607                 0.9694
 IR Inten    --      0.7387                10.1161                 4.1541

                     10                     11                     12
                      A                      A                      A
 Frequencies --    394.1379               459.9877               465.2306
 Red. masses --     13.5735                 6.3624                11.0514
 Frc consts  --      1.2423                 0.7932                 1.4093
 IR Inten    --      0.7570                 5.8329                 1.6119

                     13                     14                     15
                      A                      A                      A
 Frequencies --    638.8013               663.0914               696.6038
 Red. masses --     10.6088                12.7662                10.7927
 Frc consts  --      2.5506                 3.3072                 3.0857
 IR Inten    --      3.5145                 0.6321                 5.1614

                     16                     17                     18
                      A                      A                      A
 Frequencies --    751.9548               782.6338               806.4279
 Red. masses --      8.6293                12.7044                13.0219
 Frc consts  --      2.8748                 4.5848                 4.9895
 IR Inten    --     48.3510                 6.2100                 1.7518

                     19                     20                     21
                      A                      A                      A
 Frequencies --    826.6906               882.1110               962.1614
 Red. masses --     14.9354                10.7426                 1.4879
 Frc consts  --      6.0139                 4.9250                 0.8116
 IR Inten    --     74.5721                17.2253               242.6578

                     22                     23                     24
                      A                      A                      A
 Frequencies --   1050.9323              1163.8107              1200.1519
 Red. masses --      7.5298                 9.6631                 2.5842
 Frc consts  --      4.8998                 7.7113                 2.1931
 IR Inten    --      5.7234                15.2048                 0.2505

                     25                     26                     27
                      A                      A                      A
 Frequencies --   1363.0781              1394.7466              1406.3109
 Red. masses --     12.8563                 8.5996                13.9007
 Frc consts  --     14.0737                 9.8564                16.1975
 IR Inten    --     32.6363               180.4348               122.8889

                     28                     29                     30
                      A                      A                      A
 Frequencies --   1427.8800              1449.6659              1509.8865
 Red. masses --      4.0863                 8.7757                 3.4569
 Frc consts  --      4.9087                10.8660                 4.6433
 IR Inten    --      4.9578                 7.6511                32.5086

                     31                     32                     33
                      A                      A                      A
 Frequencies --   1518.5677              1643.3497              1649.2634
 Red. masses --     10.8170                 1.1072                13.2820
 Frc consts  --     14.6969                 1.7616                21.2859
 IR Inten    --     65.5673                40.3374               363.3675

                     34                     35                     36
                      A                      A                      A
 Frequencies --   1666.5539              3486.4383              3594.1241
 Red. masses --     13.9112                 1.0476                 1.0967
 Frc consts  --     22.7642                 7.5023                 8.3468
 IR Inten    --     93.3531                32.6353                40.5125

 - Thermochemistry -
 -------------------
 Temperature   298.150 Kelvin.  Pressure   1.00000 Atm.
 Atom     1 has atomic number  6 and mass  12.00000

 Molecular mass:   174.01375 amu.
 Principal axes and moments of inertia in atomic units:
                           1         2         3
     Eigenvalues --  1563.666601792.811543200.85101
           X            0.99998  -0.00419  -0.00545
           Y            0.00418   0.99999  -0.00118
           Z            0.00545   0.00116   0.99998
 This molecule is an asymmetric top.
 Rotational symmetry number  1.
 Warning -- assumption of classical behavior for rotation
           may cause significant error
 Rotational temperatures (Kelvin)      0.05539     0.04831     0.02706
 Rotational constants (GHZ):           1.15417     1.00665     0.56383
 Zero-point vibrational energy     211929.5 (Joules/Mol)
                                   50.65237 (Kcal/Mol)
 Warning -- explicit consideration of  12 degrees of freedom as
           vibrations may cause significant error
 Vibrational temperatures:     36.00   104.86   147.36   215.29   235.52
          (Kelvin)            259.05   307.45   426.49   537.30   567.08
                              661.82   669.36   919.09   954.04  1002.26
                             1081.89  1126.03  1160.27  1189.42  1269.16
                             1384.33  1512.06  1674.46  1726.75  1961.16
                             2006.73  2023.37  2054.40  2085.74  2172.39
                             2184.88  2364.41  2372.92  2397.80  5016.20
                             5171.14

 Zero-point correction=                           0.080720 (Hartree/Particle)
 Thermal correction to Energy=                    0.090864
 Thermal correction to Enthalpy=                  0.091808
 Thermal correction to Gibbs Free Energy=         0.043057
 Sum of electronic and zero-point Energies=           -706.486781
 Sum of electronic and thermal Energies=              -706.476637
 Sum of electronic and thermal Enthalpies=            -706.475693
 Sum of electronic and thermal Free Energies=         -706.524444

                     E (Thermal)             CV                S
                      KCal/Mol        Cal/Mol-Kelvin    Cal/Mol-Kelvin
 Total                   57.018             34.536            102.606
 Electronic               0.000              0.000              0.000
 Translational            0.889              2.981             41.369
 Rotational               0.889              2.981             30.574
 Vibrational             55.240             28.575             30.663
 Vibration     1          0.593              1.985              6.190
 Vibration     2          0.599              1.967              4.074
 Vibration     3          0.604              1.947              3.408
 Vibration     4          0.618              1.903              2.677
 Vibration     5          0.623              1.887              2.507
 Vibration     6          0.629              1.867              2.328
 Vibration     7          0.644              1.820              2.012
 Vibration     8          0.690              1.680              1.437
 Vibration     9          0.745              1.527              1.066
 Vibration    10          0.761              1.483              0.984
 Vibration    11          0.818              1.339              0.766
 Vibration    12          0.823              1.327              0.751

 Optimization completed.
    -- Stationary point found.
 Normal termination of Gaussian 09 at Fri Aug 27 09:10:27 2021.

 -----------------------------------------------------------------
 #P Geom=AllCheck Guess=TCheck SCRF=Check CCSD(T,E4T,FrzG4)/GTBas1
 -----------------------------------------------------------------

 Structure from the checkpoint file:  "/public/home/users/caep010/.cache/gau_scr/Gau-182134.chk"
 ------
 TENZOD
 ------
 Charge =  0 Multiplicity = 1

 SCF Done:  E(RHF) =  -702.656833244     A.U. after   15 cycles
 E2 =    -0.2007151509D+01 EUMP2 =    -0.70466398475339D+03
 CCSD(T)
 CCSD(T)= -0.70473447935D+03
 8\CCSD=-704.6440131\CCSD(T)=-704.7344794\RMSD=8.791e-09\PG=C01 [X(C2H2
 Normal termination of Gaussian 09 at Fri Aug 27 10:00:33 2021.

 ---------------------------------------------------------
 #P Geom=AllCheck Guess=TCheck SCRF=Check MP4=FrzG4/GTBas2
 ---------------------------------------------------------

 Structure from the checkpoint file:  "/public/home/users/caep010/.cache/gau_scr/Gau-182134.chk"
 ------
 TENZOD
 ------
 Charge =  0 Multiplicity = 1

 SCF Done:  E(RHF) =  -702.678465571     A.U. after   15 cycles
 E2 =    -0.2036128999D+01 EUMP2 =    -0.70471459457010D+03
 Normal termination of Gaussian 09 at Fri Aug 27 10:18:52 2021.

 ---------------------------------------------------------
 #P Geom=AllCheck Guess=TCheck SCRF=Check MP4=FrzG4/GTBas3
 ---------------------------------------------------------

 Structure from the checkpoint file:  "/public/home/users/caep010/.cache/gau_scr/Gau-182134.chk"
 ------
 TENZOD
 ------
 Charge =  0 Multiplicity = 1

 SCF Done:  E(RHF) =  -702.732690659     A.U. after   13 cycles
 E2 =    -0.2372926364D+01 EUMP2 =    -0.70510561702319D+03
 Normal termination of Gaussian 09 at Fri Aug 27 12:25:55 2021.

 -----------------------------------------------------------
 #P Geom=AllCheck Guess=TCheck SCRF=Check MP2=Full/GTLargeXP
 -----------------------------------------------------------

 Structure from the checkpoint file:  "/public/home/users/caep010/.cache/gau_scr/Gau-182134.chk"
 ------
 TENZOD
 ------
 Charge =  0 Multiplicity = 1

 SCF Done:  E(RHF) =  -702.917337436     A.U. after   14 cycles
 E2 =    -0.3062708606D+01 EUMP2 =    -0.70598004604177D+03
 Normal termination of Gaussian 09 at Fri Aug 27 12:38:35 2021.
 SCF Done:  E(RHF) =  -702.974281860     A.U. after   12 cycles
 Normal termination of Gaussian 09 at Fri Aug 27 12:43:40 2021.

                         Standard orientation:
 ---------------------------------------------------------------------
 Center     Atomic      Atomic             Coordinates (Angstroms)
 Number     Number       Type             X           Y           Z
 ---------------------------------------------------------------------
      1          6           0       -0.044291    0.694752    0.013683
      2          7           0        1.011313    1.686782    0.113095
      3          8           0        0.776012    2.791519   -0.345242
      4          6           0        0.011211   -0.699920   -0.023334
      5          7           0        1.144726   -1.606739   -0.106513
      6          7           0       -1.234601   -1.178976   -0.053859
      7          7           0       -1.961948   -0.084091   -0.007525
      8          7           0       -1.327196    1.068216    0.036491
      9          8           0        2.108424   -1.201829   -0.736034
     10          8           0        2.036241    1.322774    0.668123
     11          8           0        1.024209   -2.688922    0.440906
     12          7           0       -3.345731   -0.146578   -0.101523
     13          1           0       -3.679685    0.805757    0.018262
     14          1           0       -3.686865   -0.733387    0.656452
 ---------------------------------------------------------------------

 SCF Done:  E(RHF) =  -702.985364142     A.U. after    9 cycles

 The electronic state is 1-A.
 Alpha  occ. eigenvalues --  -20.63173 -20.63140 -20.63117 -20.63094 -15.89002
 Alpha  occ. eigenvalues --  -15.88898 -15.80299 -15.69715 -15.69481 -15.67280
 Alpha  occ. eigenvalues --  -11.38996 -11.38873  -1.64266  -1.63819  -1.56102
 Alpha  occ. eigenvalues --   -1.43585  -1.43302  -1.32362  -1.29122  -1.16193
 Alpha  occ. eigenvalues --   -1.07539  -0.99465  -0.89520  -0.88216  -0.83106
 Alpha  occ. eigenvalues --   -0.80668  -0.78753  -0.76394  -0.75595  -0.75117
 Alpha  occ. eigenvalues --   -0.74563  -0.73743  -0.70453  -0.61231  -0.56574
 Alpha  occ. eigenvalues --   -0.55974  -0.53857  -0.52867  -0.52798  -0.52258
 Alpha  occ. eigenvalues --   -0.48271  -0.47774  -0.47176  -0.42249
 Alpha virt. eigenvalues --    0.01483   0.01807   0.03476   0.04055   0.05249
 Alpha virt. eigenvalues --    0.05582   0.06830   0.07020   0.07065   0.07128
 Alpha virt. eigenvalues --    0.07380   0.09892   0.09967   0.10968   0.11337

 Mulliken charges:
               1
     1  C    0.277028
     2  N    0.502698
     3  O   -0.390482
     4  C    0.309732
     5  N    0.501752
     6  N   -0.307325
     7  N    0.450007
     8  N   -0.299527
     9  O   -0.371941
    10  O   -0.373062
    11  O   -0.390566
    12  N   -0.611899
    13  H    0.354554
    14  H    0.349032
 Sum of Mulliken charges =  -0.00000

 Dipole moment (field-independent basis, Debye):
    X=             -6.8227    Y=              0.2860    Z=              1.2714  Tot=              6.9460
 Quadrupole moment (field-independent basis, Debye-Ang):
   XX=            -59.7573   YY=            -81.9945   ZZ=            -66.0955
   XY=             -1.3162   XZ=             -5.3563   YZ=              0.5682

 Normal termination of Gaussian 09 at Fri Aug 27 13:17:11 2021.
