 Gaussian 09, Revision E.01,
 Gaussian 09:  ES64L-G09RevE.01 30-Nov-2015

 ----------------
 #P G4 OPT=calcfc
 ----------------

 ------
 TANHAR
 ------
 Symbolic Z-matrix:
 Charge =  0 Multiplicity = 1

 SCF Done:  E(RB3LYP) =  -644.391076149     A.U. after   16 cycles
 SCF Done:  E(RB3LYP) =  -644.454521141     A.U. after   13 cycles
 SCF Done:  E(RB3LYP) =  -644.471978266     A.U. after   16 cycles
 SCF Done:  E(RB3LYP) =  -644.472595877     A.U. after   13 cycles
 SCF Done:  E(RB3LYP) =  -644.472646066     A.U. after   13 cycles
 SCF Done:  E(RB3LYP) =  -644.472648004     A.U. after   11 cycles
 SCF Done:  E(RB3LYP) =  -644.472647956     A.U. after    8 cycles
 Optimization completed.
    -- Stationary point found.
 Normal termination of Gaussian 09 at Fri Aug 27 12:36:02 2021.

 ----------------------------------------------------------
 #P Geom=AllCheck Guess=TCheck SCRF=Check B3LYP/GTBas3 Freq
 ----------------------------------------------------------

 Structure from the checkpoint file:  "/public/home/users/caep010/.cache/gau_scr/Gau-7512.chk"
 ------
 TANHAR
 ------
 Charge =  0 Multiplicity = 1

 SCF Done:  E(RB3LYP) =  -644.472647956     A.U. after    1 cycles

  Exact polarizability: 167.593   6.752 104.665   9.594 -20.453  95.611
 Approx polarizability: 253.695  19.011 202.225  17.885 -45.805 165.176

                      1                      2                      3
                      A                      A                      A
 Frequencies --     37.2290                39.8785                56.1665
 Red. masses --     10.8909                 4.6534                 8.8880
 Frc consts  --      0.0089                 0.0044                 0.0165
 IR Inten    --      0.0581                 0.2729                 0.0430

                      4                      5                      6
                      A                      A                      A
 Frequencies --     76.5813               158.3711               175.9383
 Red. masses --      7.4148                 9.8703                 5.4734
 Frc consts  --      0.0256                 0.1459                 0.0998
 IR Inten    --      3.2433                 4.7976                 0.8755

                      7                      8                      9
                      A                      A                      A
 Frequencies --    222.5069               278.1412               349.9334
 Red. masses --      5.7871                 4.4043                 8.7808
 Frc consts  --      0.1688                 0.2008                 0.6335
 IR Inten    --      2.5771                 1.4164                 5.4379

                     10                     11                     12
                      A                      A                      A
 Frequencies --    404.9036               413.9495               435.8507
 Red. masses --      4.0120                 3.2388                 7.2324
 Frc consts  --      0.3875                 0.3270                 0.8095
 IR Inten    --      5.7740                 1.7223                 5.2781

                     13                     14                     15
                      A                      A                      A
 Frequencies --    475.5024               510.6312               559.4871
 Red. masses --      5.5087                 9.1202                 4.0918
 Frc consts  --      0.7338                 1.4011                 0.7547
 IR Inten    --      0.0638                 1.4766                 1.7584

                     16                     17                     18
                      A                      A                      A
 Frequencies --    586.6242               622.9691               665.5921
 Red. masses --      5.0846                 6.4504                 8.4421
 Frc consts  --      1.0309                 1.4749                 2.2035
 IR Inten    --      3.9717                 0.9418                14.3517

                     19                     20                     21
                      A                      A                      A
 Frequencies --    704.9319               707.4230               732.8729
 Red. masses --      2.1001                 5.5919                 1.4748
 Frc consts  --      0.6149                 1.6488                 0.4667
 IR Inten    --      5.5732                 3.1863                61.7281

                     22                     23                     24
                      A                      A                      A
 Frequencies --    796.6435               798.6008               847.7626
 Red. masses --      2.0522                 6.8030                12.5392
 Frc consts  --      0.7674                 2.5563                 5.3097
 IR Inten    --     16.4905                 6.0797                39.3610

                     25                     26                     27
                      A                      A                      A
 Frequencies --    863.8579               946.1762               952.5747
 Red. masses --      1.2543                 1.7078                 4.3562
 Frc consts  --      0.5515                 0.9008                 2.3289
 IR Inten    --      0.1094                 1.7899                10.6099

                     28                     29                     30
                      A                      A                      A
 Frequencies --    967.1965               982.5788              1004.5672
 Red. masses --      1.3524                 7.0401                 1.2812
 Frc consts  --      0.7454                 4.0047                 0.7618
 IR Inten    --      0.0531                20.8921                 0.0553

                     31                     32                     33
                      A                      A                      A
 Frequencies --   1013.4783              1017.6573              1049.2835
 Red. masses --      5.8097                 1.4489                 2.1310
 Frc consts  --      3.5159                 0.8841                 1.3823
 IR Inten    --      0.5236                11.3674                 0.1471

                     34                     35                     36
                      A                      A                      A
 Frequencies --   1107.7448              1187.4739              1201.5307
 Red. masses --      1.5704                 1.0941                 1.1801
 Frc consts  --      1.1354                 0.9090                 1.0038
 IR Inten    --      3.5611                 0.1815                 9.0644

                     37                     38                     39
                      A                      A                      A
 Frequencies --   1213.9539              1233.4057              1330.4441
 Red. masses --      8.7177                 3.9249                 2.6694
 Frc consts  --      7.5693                 3.5179                 2.7840
 IR Inten    --     10.5806                28.4432                 2.3379

                     40                     41                     42
                      A                      A                      A
 Frequencies --   1354.8821              1407.0435              1476.9774
 Red. masses --      2.0155                14.2207                 2.2329
 Frc consts  --      2.1799                16.5877                 2.8699
 IR Inten    --      3.5076               122.8212                12.6860

                     43                     44                     45
                      A                      A                      A
 Frequencies --   1520.8502              1614.8499              1639.0208
 Red. masses --      2.1547                 5.3763                 5.5935
 Frc consts  --      2.9363                 8.2604                 8.8533
 IR Inten    --      4.3370                 1.6265                 7.1114

                     46                     47                     48
                      A                      A                      A
 Frequencies --   1674.0493              1855.4848              2358.1017
 Red. masses --     14.5565                 7.9888                12.6884
 Frc consts  --     24.0350                16.2049                41.5700
 IR Inten    --    228.5783                33.1204                 5.8286

                     49                     50                     51
                      A                      A                      A
 Frequencies --   3180.3193              3187.9649              3193.9703
 Red. masses --      1.0846                 1.0870                 1.0911
 Frc consts  --      6.4636                 6.5090                 6.5579
 IR Inten    --      0.2614                 0.2837                 6.6133

                     52                     53                     54
                      A                      A                      A
 Frequencies --   3202.1638              3208.7738              3314.6451
 Red. masses --      1.0950                 1.0985                 1.1185
 Frc consts  --      6.6156                 6.6638                 7.2403
 IR Inten    --     13.6937                 7.8961                25.0630

 - Thermochemistry -
 -------------------
 Temperature   298.150 Kelvin.  Pressure   1.00000 Atm.
 Atom     1 has atomic number  6 and mass  12.00000

 Molecular mass:   186.04293 amu.
 Principal axes and moments of inertia in atomic units:
                           1         2         3
     Eigenvalues --  1363.070474260.402514422.03832
           X            0.99997  -0.00175   0.00752
           Y            0.00389   0.95577  -0.29408
           Z           -0.00668   0.29410   0.95575
 This molecule is an asymmetric top.
 Rotational symmetry number  1.
 Warning -- assumption of classical behavior for rotation
           may cause significant error
 Rotational temperatures (Kelvin)      0.06354     0.02033     0.01959
 Rotational constants (GHZ):           1.32403     0.42361     0.40812
 Zero-point vibrational energy     364379.6 (Joules/Mol)
                                   87.08881 (Kcal/Mol)
 Warning -- explicit consideration of  16 degrees of freedom as
           vibrations may cause significant error
 Vibrational temperatures:     53.56    57.38    80.81   110.18   227.86
          (Kelvin)            253.14   320.14   400.18   503.48   582.57
                              595.58   627.09   684.14   734.68   804.98
                              844.02   896.31   957.64  1014.24  1017.82
                             1054.44  1146.19  1149.01  1219.74  1242.90
                             1361.33  1370.54  1391.58  1413.71  1445.35
                             1458.17  1464.18  1509.68  1593.80  1708.51
                             1728.73  1746.61  1774.59  1914.21  1949.37
                             2024.42  2125.04  2188.16  2323.41  2358.18
                             2408.58  2669.63  3392.78  4575.76  4586.76
                             4595.41  4607.19  4616.70  4769.03

 Zero-point correction=                           0.138785 (Hartree/Particle)
 Thermal correction to Energy=                    0.150512
 Thermal correction to Enthalpy=                  0.151456
 Thermal correction to Gibbs Free Energy=         0.098931
 Sum of electronic and zero-point Energies=           -644.333863
 Sum of electronic and thermal Energies=              -644.322136
 Sum of electronic and thermal Enthalpies=            -644.321192
 Sum of electronic and thermal Free Energies=         -644.373717

                     E (Thermal)             CV                S
                      KCal/Mol        Cal/Mol-Kelvin    Cal/Mol-Kelvin
 Total                   94.447             43.290            110.548
 Electronic               0.000              0.000              0.000
 Translational            0.889              2.981             41.569
 Rotational               0.889              2.981             31.619
 Vibrational             92.670             37.329             37.361
 Vibration     1          0.594              1.982              5.401
 Vibration     2          0.594              1.981              5.265
 Vibration     3          0.596              1.975              4.588
 Vibration     4          0.599              1.965              3.977
 Vibration     5          0.621              1.893              2.569
 Vibration     6          0.628              1.872              2.371
 Vibration     7          0.648              1.807              1.939
 Vibration     8          0.679              1.714              1.545
 Vibration     9          0.727              1.575              1.166
 Vibration    10          0.770              1.460              0.945
 Vibration    11          0.778              1.440              0.913
 Vibration    12          0.796              1.392              0.840
 Vibration    13          0.832              1.304              0.722
 Vibration    14          0.866              1.226              0.632
 Vibration    15          0.915              1.119              0.525
 Vibration    16          0.944              1.060              0.473

 Optimization completed.
    -- Stationary point found.
 Normal termination of Gaussian 09 at Fri Aug 27 12:39:22 2021.

 -----------------------------------------------------------------
 #P Geom=AllCheck Guess=TCheck SCRF=Check CCSD(T,E4T,FrzG4)/GTBas1
 -----------------------------------------------------------------

 Structure from the checkpoint file:  "/public/home/users/caep010/.cache/gau_scr/Gau-7512.chk"
 ------
 TANHAR
 ------
 Charge =  0 Multiplicity = 1

 SCF Done:  E(RHF) =  -640.583549008     A.U. after   15 cycles
 E2 =    -0.1961078645D+01 EUMP2 =    -0.64254462765293D+03
 CCSD(T)
 CCSD(T)= -0.64266642803D+03
 9174\CCSD=-642.5717343\CCSD(T)=-642.666428\RMSD=4.949e-09\PG=C01 [X(C1
 Normal termination of Gaussian 09 at Fri Aug 27 14:16:35 2021.

 ---------------------------------------------------------
 #P Geom=AllCheck Guess=TCheck SCRF=Check MP4=FrzG4/GTBas2
 ---------------------------------------------------------

 Structure from the checkpoint file:  "/public/home/users/caep010/.cache/gau_scr/Gau-7512.chk"
 ------
 TANHAR
 ------
 Charge =  0 Multiplicity = 1

 SCF Done:  E(RHF) =  -640.601750094     A.U. after   17 cycles
 E2 =    -0.1984042383D+01 EUMP2 =    -0.64258579247686D+03
 Normal termination of Gaussian 09 at Fri Aug 27 14:58:52 2021.

 ---------------------------------------------------------
 #P Geom=AllCheck Guess=TCheck SCRF=Check MP4=FrzG4/GTBas3
 ---------------------------------------------------------

 Structure from the checkpoint file:  "/public/home/users/caep010/.cache/gau_scr/Gau-7512.chk"
 ------
 TANHAR
 ------
 Charge =  0 Multiplicity = 1

 SCF Done:  E(RHF) =  -640.645484450     A.U. after   13 cycles
 E2 =    -0.2314358489D+01 EUMP2 =    -0.64295984293913D+03
 Normal termination of Gaussian 09 at Fri Aug 27 19:38:33 2021.

 -----------------------------------------------------------
 #P Geom=AllCheck Guess=TCheck SCRF=Check MP2=Full/GTLargeXP
 -----------------------------------------------------------

 Structure from the checkpoint file:  "/public/home/users/caep010/.cache/gau_scr/Gau-7512.chk"
 ------
 TANHAR
 ------
 Charge =  0 Multiplicity = 1

 SCF Done:  E(RHF) =  -640.794337736     A.U. after   14 cycles
 E2 =    -0.3053758243D+01 EUMP2 =    -0.64384809597972D+03
 Normal termination of Gaussian 09 at Fri Aug 27 19:51:44 2021.
 SCF Done:  E(RHF) =  -640.843867412     A.U. after   10 cycles
 Normal termination of Gaussian 09 at Fri Aug 27 19:59:53 2021.

                         Standard orientation:
 ---------------------------------------------------------------------
 Center     Atomic      Atomic             Coordinates (Angstroms)
 Number     Number       Type             X           Y           Z
 ---------------------------------------------------------------------
      1          6           0        1.588509   -0.058558    0.468406
      2          6           0        0.168355   -0.431503    0.750067
      3          6           0       -1.170813   -0.150052    0.309128
      4          6           0       -1.392470    0.787954   -0.708097
      5          6           0       -2.687629    1.061664   -1.130062
      6          6           0       -3.765990    0.402572   -0.543274
      7          1           0       -4.776309    0.616956   -0.874823
      8          6           0       -3.551079   -0.533221    0.469519
      9          7           0        2.225764   -0.655219   -0.788769
     10          8           0        1.904032   -1.795212   -1.069706
     11          8           0        2.992998    0.058095   -1.409026
     12          1           0       -0.548210    1.298213   -1.158460
     13          6           0       -2.260679   -0.811070    0.896963
     14          1           0       -2.084702   -1.537758    1.682366
     15          6           0        2.141314    1.242296    0.781199
     16          7           0        2.522367    2.283516    1.107333
     17          6           0        1.071810   -1.003280    1.485146
     18          1           0        1.395241   -1.662585    2.269433
     19          1           0       -2.855263    1.788679   -1.916697
     20          1           0       -4.391880   -1.045451    0.924133
 ---------------------------------------------------------------------

 SCF Done:  E(RHF) =  -640.853091113     A.U. after    8 cycles

 The electronic state is 1-A.
 Alpha  occ. eigenvalues --  -20.61332 -20.61044 -15.85682 -15.58687 -11.37528
 Alpha  occ. eigenvalues --  -11.32540 -11.31012 -11.29116 -11.28904 -11.27594
 Alpha  occ. eigenvalues --  -11.27504 -11.27113 -11.26567 -11.26446  -1.61740
 Alpha  occ. eigenvalues --   -1.41513  -1.27331  -1.22487  -1.18908  -1.07326
 Alpha  occ. eigenvalues --   -1.05218  -1.02865  -0.90030  -0.88811  -0.86274
 Alpha  occ. eigenvalues --   -0.80980  -0.79583  -0.76649  -0.73412  -0.72683
 Alpha  occ. eigenvalues --   -0.70456  -0.67149  -0.64608  -0.62337  -0.60723
 Alpha  occ. eigenvalues --   -0.57540  -0.55926  -0.55634  -0.53959  -0.52905
 Alpha  occ. eigenvalues --   -0.52130  -0.51310  -0.47728  -0.46696  -0.45611
 Alpha  occ. eigenvalues --   -0.44866  -0.37146  -0.35632
 Alpha virt. eigenvalues --    0.02139   0.02889   0.03526   0.03763   0.04594
 Alpha virt. eigenvalues --    0.05000   0.05390   0.06033   0.06513   0.06717
 Alpha virt. eigenvalues --    0.06882   0.07215   0.07682   0.08026   0.08469

 Mulliken charges:
               1
     1  C    0.193249
     2  C    0.169870
     3  C    0.370146
     4  C   -0.292459
     5  C   -0.237759
     6  C   -0.194316
     7  H    0.214680
     8  C   -0.228120
     9  N    0.543218
    10  O   -0.406429
    11  O   -0.427722
    12  H    0.214790
    13  C   -0.307379
    14  H    0.200284
    15  C    0.198765
    16  N   -0.430883
    17  C   -0.298960
    18  H    0.286908
    19  H    0.218848
    20  H    0.213269
 Sum of Mulliken charges =  -0.00000

 Dipole moment (field-independent basis, Debye):
    X=             -6.0537    Y=             -2.2465    Z=              2.2565  Tot=              6.8401
 Quadrupole moment (field-independent basis, Debye-Ang):
   XX=            -80.5845   YY=            -88.9671   ZZ=            -79.1928
   XY=             -7.3618   XZ=              6.3522   YZ=            -13.9355

 Normal termination of Gaussian 09 at Fri Aug 27 20:54:43 2021.
