 Gaussian 09, Revision E.01,
 Gaussian 09:  ES64L-G09RevE.01 30-Nov-2015

 ----------------
 #P G4 OPT=calcfc
 ----------------

 ------
 UGUHEJ
 ------
 Symbolic Z-matrix:
 Charge =  0 Multiplicity = 1

 SCF Done:  E(RB3LYP) =  -644.658985598     A.U. after   15 cycles
 SCF Done:  E(RB3LYP) =  -644.759858279     A.U. after   13 cycles
 SCF Done:  E(RB3LYP) =  -644.812933776     A.U. after   15 cycles
 SCF Done:  E(RB3LYP) =  -644.813748349     A.U. after   13 cycles
 SCF Done:  E(RB3LYP) =  -644.813643870     A.U. after   13 cycles
 SCF Done:  E(RB3LYP) =  -644.813810367     A.U. after    9 cycles
 SCF Done:  E(RB3LYP) =  -644.813880115     A.U. after   11 cycles
 SCF Done:  E(RB3LYP) =  -644.813890946     A.U. after   10 cycles
 SCF Done:  E(RB3LYP) =  -644.813898128     A.U. after   10 cycles
 SCF Done:  E(RB3LYP) =  -644.813911460     A.U. after   11 cycles
 SCF Done:  E(RB3LYP) =  -644.813932644     A.U. after    8 cycles
 SCF Done:  E(RB3LYP) =  -644.813932655     A.U. after    6 cycles
 SCF Done:  E(RB3LYP) =  -644.813932656     A.U. after    6 cycles
 Optimization completed.
    -- Stationary point found.
 Normal termination of Gaussian 09 at Wed Aug 25 19:43:56 2021.

 ----------------------------------------------------------
 #P Geom=AllCheck Guess=TCheck SCRF=Check B3LYP/GTBas3 Freq
 ----------------------------------------------------------

 Structure from the checkpoint file:  "/public/home/users/caep010/.cache/gau_scr/Gau-152508.chk"
 ------
 UGUHEJ
 ------
 Charge =  0 Multiplicity = 1

 SCF Done:  E(RB3LYP) =  -644.813932656     A.U. after    1 cycles

  Exact polarizability: 158.883   4.280 126.370  -0.014   0.028  51.353
 Approx polarizability: 239.066  12.882 231.424   0.077   0.098  83.701

                      1                      2                      3
                      A                      A                      A
 Frequencies --     24.8289                40.8389                56.8241
 Red. masses --      1.1605                10.8829                 5.4277
 Frc consts  --      0.0004                 0.0107                 0.0103
 IR Inten    --      1.0697                 1.7910                 1.8931

                      4                      5                      6
                      A                      A                      A
 Frequencies --     85.8225               116.8251               173.3020
 Red. masses --      3.0880                 7.0495                 5.2975
 Frc consts  --      0.0134                 0.0567                 0.0937
 IR Inten    --      1.1830                 0.6922                 1.3100

                      7                      8                      9
                      A                      A                      A
 Frequencies --    242.9526               256.1301               319.5216
 Red. masses --      6.4807                 4.2131                 4.4201
 Frc consts  --      0.2254                 0.1628                 0.2659
 IR Inten    --      6.4726                 0.1114                 0.4731

                     10                     11                     12
                      A                      A                      A
 Frequencies --    362.9835               405.5956               443.4363
 Red. masses --      6.3690                 7.8937                 3.4794
 Frc consts  --      0.4944                 0.7651                 0.4031
 IR Inten    --      1.3974                 0.8564                 0.3133

                     13                     14                     15
                      A                      A                      A
 Frequencies --    530.2444               537.9283               548.1501
 Red. masses --      4.8199                 1.5735                 5.7052
 Frc consts  --      0.7984                 0.2683                 1.0100
 IR Inten    --     16.4907                51.8014                 4.3736

                     16                     17                     18
                      A                      A                      A
 Frequencies --    559.8397               615.6169               667.8230
 Red. masses --      3.2065                 2.0187                 5.6942
 Frc consts  --      0.5921                 0.4508                 1.4963
 IR Inten    --      3.5695                 5.0986                 3.2841

                     19                     20                     21
                      A                      A                      A
 Frequencies --    697.6683               698.2186               767.3307
 Red. masses --      2.3487                 6.4904                 3.0308
 Frc consts  --      0.6736                 1.8642                 1.0514
 IR Inten    --     10.5189                 7.9325                36.5325

                     22                     23                     24
                      A                      A                      A
 Frequencies --    828.5078               835.7752               914.6158
 Red. masses --      1.8921                 8.4457                 1.4428
 Frc consts  --      0.7652                 3.4759                 0.7111
 IR Inten    --      8.5565                34.9633                 1.4955

                     25                     26                     27
                      A                      A                      A
 Frequencies --    936.7679               959.1465               962.1914
 Red. masses --      3.4553                 5.8588                 1.3600
 Frc consts  --      1.7865                 3.1756                 0.7419
 IR Inten    --      6.1117                 4.5915                 5.8790

                     28                     29                     30
                      A                      A                      A
 Frequencies --    979.4638              1010.6110              1016.5552
 Red. masses --      1.3661                 4.4351                 2.0526
 Frc consts  --      0.7722                 2.6688                 1.2497
 IR Inten    --      7.4225                 3.7440                37.3989

                     31                     32                     33
                      A                      A                      A
 Frequencies --   1049.3131              1101.4703              1114.3470
 Red. masses --      1.7616                 1.6765                 1.6617
 Frc consts  --      1.1428                 1.1984                 1.2157
 IR Inten    --      3.6942                41.4067                 1.0623

                     34                     35                     36
                      A                      A                      A
 Frequencies --   1192.3772              1241.8241              1268.5999
 Red. masses --      1.1460                 2.8062                 2.4502
 Frc consts  --      0.9600                 2.5497                 2.3233
 IR Inten    --      2.4324                79.4719                94.1288

                     37                     38                     39
                      A                      A                      A
 Frequencies --   1297.2014              1364.2103              1388.2763
 Red. masses --      1.4904                 5.4356                 1.3384
 Frc consts  --      1.4776                 5.9602                 1.5198
 IR Inten    --     16.2931               110.2818                51.0225

                     40                     41                     42
                      A                      A                      A
 Frequencies --   1395.4734              1454.7680              1471.9048
 Red. masses --     12.8581                 2.3111                 1.1669
 Frc consts  --     14.7526                 2.8817                 1.4895
 IR Inten    --    222.8061               112.5162                 2.8673

                     43                     44                     45
                      A                      A                      A
 Frequencies --   1483.4187              1512.8700              1552.6553
 Red. masses --      1.0461                 2.5343                 2.0832
 Frc consts  --      1.3563                 3.4176                 2.9589
 IR Inten    --      7.6251                36.0113               308.3681

                     46                     47                     48
                      A                      A                      A
 Frequencies --   1622.1616              1630.5529              1668.1565
 Red. masses --      6.8821                 5.9616                 8.7158
 Frc consts  --     10.6698                 9.3386                14.2899
 IR Inten    --    286.9816                62.2773                 5.6733

                     49                     50                     51
                      A                      A                      A
 Frequencies --   1800.5055              3042.2386              3104.6824
 Red. masses --      8.9255                 1.0386                 1.1000
 Frc consts  --     17.0480                 5.6636                 6.2471
 IR Inten    --    171.4099                 4.2428                 8.4931

                     52                     53                     54
                      A                      A                      A
 Frequencies --   3164.4471              3168.4791              3198.2480
 Red. masses --      1.0882                 1.0996                 1.0921
 Frc consts  --      6.4205                 6.5043                 6.5819
 IR Inten    --     10.7986                 3.6045                 9.5748

                     55                     56                     57
                      A                      A                      A
 Frequencies --   3247.0691              3280.6114              3624.3528
 Red. masses --      1.0924                 1.0906                 1.0763
 Frc consts  --      6.7862                 6.9152                 8.3297
 IR Inten    --      3.2573                24.4411                20.2528

 - Thermochemistry -
 -------------------
 Temperature   298.150 Kelvin.  Pressure   1.00000 Atm.
 Atom     1 has atomic number  8 and mass  15.99491

 Molecular mass:   180.05349 amu.
 Principal axes and moments of inertia in atomic units:
                           1         2         3
     Eigenvalues --  1218.393433701.968074909.06575
           X            0.99994   0.01134  -0.00014
           Y           -0.01134   0.99994  -0.00004
           Z            0.00014   0.00004   1.00000
 This molecule is an asymmetric top.
 Rotational symmetry number  1.
 Warning -- assumption of classical behavior for rotation
           may cause significant error
 Rotational temperatures (Kelvin)      0.07109     0.02340     0.01764
 Rotational constants (GHZ):           1.48125     0.48751     0.36763
 Zero-point vibrational energy     412925.4 (Joules/Mol)
                                   98.69153 (Kcal/Mol)
 Warning -- explicit consideration of  17 degrees of freedom as
           vibrations may cause significant error
 Vibrational temperatures:     35.72    58.76    81.76   123.48   168.09
          (Kelvin)            249.34   349.55   368.51   459.72   522.25
                              583.56   638.01   762.90   773.96   788.66
                              805.48   885.73   960.85  1003.79  1004.58
                             1104.02  1192.04  1202.49  1315.93  1347.80
                             1380.00  1384.38  1409.23  1454.04  1462.59
                             1509.73  1584.77  1603.29  1715.56  1786.71
                             1825.23  1866.38  1962.79  1997.42  2007.77
                             2093.08  2117.74  2134.31  2176.68  2233.92
                             2333.93  2346.00  2400.10  2590.52  4377.10
                             4466.94  4552.93  4558.73  4601.56  4671.80
                             4720.06  5214.63

 Zero-point correction=                           0.157275 (Hartree/Particle)
 Thermal correction to Energy=                    0.169025
 Thermal correction to Enthalpy=                  0.169969
 Thermal correction to Gibbs Free Energy=         0.117075
 Sum of electronic and zero-point Energies=           -644.656658
 Sum of electronic and thermal Energies=              -644.644908
 Sum of electronic and thermal Enthalpies=            -644.643964
 Sum of electronic and thermal Free Energies=         -644.696858

                     E (Thermal)             CV                S
                      KCal/Mol        Cal/Mol-Kelvin    Cal/Mol-Kelvin
 Total                  106.065             42.651            111.326
 Electronic               0.000              0.000              0.000
 Translational            0.889              2.981             41.471
 Rotational               0.889              2.981             31.471
 Vibrational            104.287             36.689             38.383
 Vibration     1          0.593              1.985              6.205
 Vibration     2          0.594              1.981              5.218
 Vibration     3          0.596              1.975              4.565
 Vibration     4          0.601              1.959              3.753
 Vibration     5          0.608              1.935              3.152
 Vibration     6          0.627              1.875              2.399
 Vibration     7          0.659              1.774              1.781
 Vibration     8          0.666              1.752              1.688
 Vibration     9          0.705              1.636              1.313
 Vibration    10          0.737              1.548              1.109
 Vibration    11          0.771              1.458              0.942
 Vibration    12          0.803              1.375              0.816
 Vibration    13          0.885              1.183              0.587
 Vibration    14          0.893              1.166              0.570
 Vibration    15          0.903              1.144              0.548
 Vibration    16          0.915              1.118              0.524
 Vibration    17          0.975              0.999              0.424

 Optimization completed.
    -- Stationary point found.
 Normal termination of Gaussian 09 at Wed Aug 25 19:46:52 2021.

 -----------------------------------------------------------------
 #P Geom=AllCheck Guess=TCheck SCRF=Check CCSD(T,E4T,FrzG4)/GTBas1
 -----------------------------------------------------------------

 Structure from the checkpoint file:  "/public/home/users/caep010/.cache/gau_scr/Gau-152508.chk"
 ------
 UGUHEJ
 ------
 Charge =  0 Multiplicity = 1

 SCF Done:  E(RHF) =  -640.984351440     A.U. after   15 cycles
 E2 =    -0.1893008689D+01 EUMP2 =    -0.64287736012944D+03
 CCSD(T)
 CCSD(T)= -0.64299690495D+03
 4SDQ=-642.9183961\CCSD=-642.9136206\CCSD(T)=-642.9969049\RMSD=3.847e-0
 Normal termination of Gaussian 09 at Wed Aug 25 21:04:05 2021.

 ---------------------------------------------------------
 #P Geom=AllCheck Guess=TCheck SCRF=Check MP4=FrzG4/GTBas2
 ---------------------------------------------------------

 Structure from the checkpoint file:  "/public/home/users/caep010/.cache/gau_scr/Gau-152508.chk"
 ------
 UGUHEJ
 ------
 Charge =  0 Multiplicity = 1

 SCF Done:  E(RHF) =  -641.001686394     A.U. after   15 cycles
 E2 =    -0.1916606723D+01 EUMP2 =    -0.64291829311718D+03
 Normal termination of Gaussian 09 at Wed Aug 25 21:38:08 2021.

 ---------------------------------------------------------
 #P Geom=AllCheck Guess=TCheck SCRF=Check MP4=FrzG4/GTBas3
 ---------------------------------------------------------

 Structure from the checkpoint file:  "/public/home/users/caep010/.cache/gau_scr/Gau-152508.chk"
 ------
 UGUHEJ
 ------
 Charge =  0 Multiplicity = 1

 SCF Done:  E(RHF) =  -641.049838975     A.U. after   12 cycles
 E2 =    -0.2267599303D+01 EUMP2 =    -0.64331743827796D+03
 Normal termination of Gaussian 09 at Thu Aug 26 01:20:02 2021.

 -----------------------------------------------------------
 #P Geom=AllCheck Guess=TCheck SCRF=Check MP2=Full/GTLargeXP
 -----------------------------------------------------------

 Structure from the checkpoint file:  "/public/home/users/caep010/.cache/gau_scr/Gau-152508.chk"
 ------
 UGUHEJ
 ------
 Charge =  0 Multiplicity = 1

 SCF Done:  E(RHF) =  -641.206210521     A.U. after   14 cycles
 E2 =    -0.2975802716D+01 EUMP2 =    -0.64418201323763D+03
 Normal termination of Gaussian 09 at Thu Aug 26 01:32:42 2021.
 SCF Done:  E(RHF) =  -641.257079824     A.U. after   10 cycles
 Normal termination of Gaussian 09 at Thu Aug 26 01:39:58 2021.

                         Standard orientation:
 ---------------------------------------------------------------------
 Center     Atomic      Atomic             Coordinates (Angstroms)
 Number     Number       Type             X           Y           Z
 ---------------------------------------------------------------------
      1          8           0       -2.277135   -1.690310   -0.005080
      2          6           0       -2.801060   -0.596796   -0.003029
      3          7           0       -2.094450    0.592870   -0.004377
      4          6           0       -0.706634    0.796058   -0.002401
      5          6           0       -0.242516    2.120214   -0.001281
      6          6           0        0.220243   -0.252498   -0.001709
      7          6           0        1.571051    0.068744    0.000211
      8          7           0        2.549202   -1.040770    0.001020
      9          8           0        2.115177   -2.183562    0.000095
     10          8           0        3.737543   -0.743470    0.002599
     11          6           0        2.051131    1.371570    0.001372
     12          6           0        1.117347    2.401949    0.000593
     13          6           0       -4.309050   -0.399318    0.007535
     14          1           0       -4.629342    0.096966    0.929960
     15          1           0       -4.785000   -1.376830   -0.054895
     16          1           0       -0.959545    2.936528   -0.001846
     17          1           0        1.450433    3.433649    0.001451
     18          1           0        3.116248    1.552509    0.002801
     19          1           0       -0.100566   -1.281381   -0.002716
     20          1           0       -2.647714    1.435773   -0.003426
     21          1           0       -4.635521    0.217286   -0.836486
 ---------------------------------------------------------------------

 SCF Done:  E(RHF) =  -641.266936740     A.U. after    8 cycles

 The electronic state is 1-A.
 Alpha  occ. eigenvalues --  -20.59553 -20.59378 -20.54335 -15.84728 -15.62201
 Alpha  occ. eigenvalues --  -11.37801 -11.31757 -11.31017 -11.27105 -11.26767
 Alpha  occ. eigenvalues --  -11.26472 -11.26224 -11.25660  -1.59980  -1.41032
 Alpha  occ. eigenvalues --   -1.39376  -1.28044  -1.18917  -1.09045  -1.05780
 Alpha  occ. eigenvalues --   -1.00970  -0.96161  -0.88407  -0.83686  -0.80661
 Alpha  occ. eigenvalues --   -0.78150  -0.72419  -0.71440  -0.70755  -0.70626
 Alpha  occ. eigenvalues --   -0.69316  -0.64829  -0.64462  -0.62809  -0.61164
 Alpha  occ. eigenvalues --   -0.58247  -0.57635  -0.56298  -0.54759  -0.52906
 Alpha  occ. eigenvalues --   -0.49102  -0.49019  -0.46923  -0.44981  -0.44605
 Alpha  occ. eigenvalues --   -0.37746  -0.33641
 Alpha virt. eigenvalues --    0.01746   0.02976   0.03709   0.04121   0.04532
 Alpha virt. eigenvalues --    0.05448   0.05742   0.06255   0.06750   0.07114
 Alpha virt. eigenvalues --    0.07527   0.07912   0.08651   0.08723   0.09054

 Mulliken charges:
               1
     1  O   -0.615138
     2  C    0.591235
     3  N   -0.475187
     4  C    0.291437
     5  C   -0.298219
     6  C   -0.269804
     7  C    0.204751
     8  N    0.528891
     9  O   -0.426528
    10  O   -0.446065
    11  C   -0.274559
    12  C   -0.133616
    13  C   -0.625197
    14  H    0.206155
    15  H    0.228491
    16  H    0.176256
    17  H    0.221760
    18  H    0.257765
    19  H    0.316840
    20  H    0.338855
    21  H    0.201878
 Sum of Mulliken charges =  -0.00000

 Dipole moment (field-independent basis, Debye):
    X=             -5.6189    Y=              6.8348    Z=              0.0161  Tot=              8.8480
 Quadrupole moment (field-independent basis, Debye-Ang):
   XX=            -71.4253   YY=            -77.8860   ZZ=            -76.6273
   XY=              1.1879   XZ=             -0.0650   YZ=             -0.0111

 Normal termination of Gaussian 09 at Thu Aug 26 02:28:16 2021.
