 Gaussian 09, Revision E.01,
 Gaussian 09:  ES64L-G09RevE.01 30-Nov-2015

 ----------------
 #P G4 OPT=calcfc
 ----------------

 ------
 UFUXOI
 ------
 Symbolic Z-matrix:
 Charge =  0 Multiplicity = 1

 SCF Done:  E(RB3LYP) =  -690.525579212     A.U. after   16 cycles
 SCF Done:  E(RB3LYP) =  -690.594974393     A.U. after   14 cycles
 SCF Done:  E(RB3LYP) =  -690.604498542     A.U. after   16 cycles
 SCF Done:  E(RB3LYP) =  -690.605782483     A.U. after   14 cycles
 SCF Done:  E(RB3LYP) =  -690.605806131     A.U. after   12 cycles
 Optimization completed.
    -- Stationary point found.
 Normal termination of Gaussian 09 at Thu Aug 26 16:50:18 2021.

 ----------------------------------------------------------
 #P Geom=AllCheck Guess=TCheck SCRF=Check B3LYP/GTBas3 Freq
 ----------------------------------------------------------

 Structure from the checkpoint file:  "/public/home/users/caep010/.cache/gau_scr/Gau-206457.chk"
 ------
 UFUXOI
 ------
 Charge =  0 Multiplicity = 1

 SCF Done:  E(RB3LYP) =  -690.605806131     A.U. after    1 cycles

  Exact polarizability: 132.586  -2.855  96.119  -0.000  -0.000  36.930
 Approx polarizability: 224.864  -6.651 212.236  -0.006   0.013  60.679

                      1                      2                      3
                      A                      A                      A
 Frequencies --     79.6716                82.4392               115.7029
 Red. masses --     14.2015                13.3151                13.7022
 Frc consts  --      0.0531                 0.0533                 0.1081
 IR Inten    --      1.9870                 0.3801                 6.8877

                      4                      5                      6
                      A                      A                      A
 Frequencies --    161.3470               253.4675               253.6247
 Red. masses --     11.9828                 3.4149                 2.2755
 Frc consts  --      0.1838                 0.1293                 0.0862
 IR Inten    --      9.2852                40.9589                92.9418

                      7                      8                      9
                      A                      A                      A
 Frequencies --    263.0863               327.1858               340.8491
 Red. masses --      2.6241                 5.1718                 8.1269
 Frc consts  --      0.1070                 0.3262                 0.5563
 IR Inten    --     51.5789                 2.7361                 3.0196

                     10                     11                     12
                      A                      A                      A
 Frequencies --    351.7264               498.4960               518.4685
 Red. masses --      6.8434                11.4863                10.2626
 Frc consts  --      0.4988                 1.6817                 1.6254
 IR Inten    --      0.7886                 2.2406                 1.9569

                     13                     14                     15
                      A                      A                      A
 Frequencies --    549.7466               615.5441               647.0291
 Red. masses --      2.0265                 1.0641                 4.9739
 Frc consts  --      0.3608                 0.2376                 1.2269
 IR Inten    --     32.4501                 0.0298                 4.6276

                     16                     17                     18
                      A                      A                      A
 Frequencies --    660.9790               705.1381               733.5782
 Red. masses --      3.6984                 3.0185                 7.9100
 Frc consts  --      0.9520                 0.8843                 2.5080
 IR Inten    --      7.5843                43.9346                 4.7628

                     19                     20                     21
                      A                      A                      A
 Frequencies --    777.3865               794.7459               841.9147
 Red. masses --     12.4847                13.0055                12.8246
 Frc consts  --      4.4453                 4.8399                 5.3559
 IR Inten    --     10.3482                 6.4289                27.1137

                     22                     23                     24
                      A                      A                      A
 Frequencies --    858.8086               959.0843              1173.1193
 Red. masses --     11.7850                 3.0541                 2.2557
 Frc consts  --      5.1212                 1.6552                 1.8290
 IR Inten    --     86.4462                20.3512                 7.2882

                     25                     26                     27
                      A                      A                      A
 Frequencies --   1220.9140              1276.0711              1332.4725
 Red. masses --      2.1378                 6.6110                 7.3322
 Frc consts  --      1.8775                 6.3426                 7.6701
 IR Inten    --     25.3422                32.2606                66.3163

                     28                     29                     30
                      A                      A                      A
 Frequencies --   1368.7760              1409.8087              1411.4056
 Red. masses --     12.5162                10.0046                 9.9822
 Frc consts  --     13.8162                11.7158                11.7161
 IR Inten    --    644.7454                35.2411                13.1608

                     31                     32                     33
                      A                      A                      A
 Frequencies --   1452.1708              1524.8655              1544.5736
 Red. masses --      3.2583                 3.1723                 2.1856
 Frc consts  --      4.0483                 4.3460                 3.0721
 IR Inten    --     79.9544               166.0322               211.4948

                     34                     35                     36
                      A                      A                      A
 Frequencies --   1598.2855              1634.2998              1691.9125
 Red. masses --      4.7768                 4.7895                 9.0646
 Frc consts  --      7.1894                 7.5371                15.2881
 IR Inten    --     59.3238                93.7245               381.6951

                     37                     38                     39
                      A                      A                      A
 Frequencies --   3586.5535              3646.2574              3730.1205
 Red. masses --      1.0423                 1.0818                 1.1074
 Frc consts  --      7.8997                 8.4739                 9.0784
 IR Inten    --    100.6888               194.3189               122.1697

 - Thermochemistry -
 -------------------
 Temperature   298.150 Kelvin.  Pressure   1.00000 Atm.
 Atom     1 has atomic number  7 and mass  14.00307

 Molecular mass:   173.01850 amu.
 Principal axes and moments of inertia in atomic units:
                           1         2         3
     Eigenvalues --   784.725852870.287783655.01340
           X            0.99999  -0.00513   0.00000
           Y            0.00513   0.99999  -0.00005
           Z           -0.00000   0.00005   1.00000
 This molecule is an asymmetric top.
 Rotational symmetry number  1.
 Warning -- assumption of classical behavior for rotation
           may cause significant error
 Rotational temperatures (Kelvin)      0.11037     0.03018     0.02370
 Rotational constants (GHZ):           2.29984     0.62877     0.49377
 Zero-point vibrational energy     245184.4 (Joules/Mol)
                                   58.60047 (Kcal/Mol)
 Warning -- explicit consideration of  14 degrees of freedom as
           vibrations may cause significant error
 Vibrational temperatures:    114.63   118.61   166.47   232.14   364.68
          (Kelvin)            364.91   378.52   470.75   490.41   506.06
                              717.22   745.96   790.96   885.63   930.93
                              951.00  1014.54  1055.45  1118.48  1143.46
                             1211.33  1235.63  1379.91  1687.85  1756.62
                             1835.98  1917.13  1969.36  2028.40  2030.70
                             2089.35  2193.94  2222.29  2299.57  2351.39
                             2434.28  5160.24  5246.14  5366.80

 Zero-point correction=                           0.093386 (Hartree/Particle)
 Thermal correction to Energy=                    0.103333
 Thermal correction to Enthalpy=                  0.104277
 Thermal correction to Gibbs Free Energy=         0.057406
 Sum of electronic and zero-point Energies=           -690.512420
 Sum of electronic and thermal Energies=              -690.502473
 Sum of electronic and thermal Enthalpies=            -690.501529
 Sum of electronic and thermal Free Energies=         -690.548400

                     E (Thermal)             CV                S
                      KCal/Mol        Cal/Mol-Kelvin    Cal/Mol-Kelvin
 Total                   64.842             36.083             98.649
 Electronic               0.000              0.000              0.000
 Translational            0.889              2.981             41.352
 Rotational               0.889              2.981             30.488
 Vibrational             63.065             30.121             26.809
 Vibration     1          0.600              1.963              3.899
 Vibration     2          0.600              1.961              3.832
 Vibration     3          0.608              1.936              3.171
 Vibration     4          0.622              1.890              2.534
 Vibration     5          0.665              1.757              1.706
 Vibration     6          0.665              1.757              1.705
 Vibration     7          0.670              1.740              1.641
 Vibration     8          0.711              1.621              1.274
 Vibration     9          0.720              1.594              1.208
 Vibration    10          0.728              1.572              1.158
 Vibration    11          0.854              1.253              0.662
 Vibration    12          0.873              1.209              0.614
 Vibration    13          0.905              1.140              0.545
 Vibration    14          0.975              0.999              0.424

 Normal termination of Gaussian 09 at Thu Aug 26 16:52:13 2021.

 -----------------------------------------------------------------
 #P Geom=AllCheck Guess=TCheck SCRF=Check CCSD(T,E4T,FrzG4)/GTBas1
 -----------------------------------------------------------------

 Structure from the checkpoint file:  "/public/home/users/caep010/.cache/gau_scr/Gau-206457.chk"
 ------
 UFUXOI
 ------
 Charge =  0 Multiplicity = 1

 SCF Done:  E(RHF) =  -686.739383896     A.U. after   15 cycles
 E2 =    -0.1963627984D+01 EUMP2 =    -0.68870301187996D+03
 CCSD(T)
 CCSD(T)= -0.68877936579D+03
 -688.8064582\MP4SDQ=-688.7004906\CCSD=-688.6920676\CCSD(T)=-688.779365
 Normal termination of Gaussian 09 at Thu Aug 26 17:42:33 2021.

 ---------------------------------------------------------
 #P Geom=AllCheck Guess=TCheck SCRF=Check MP4=FrzG4/GTBas2
 ---------------------------------------------------------

 Structure from the checkpoint file:  "/public/home/users/caep010/.cache/gau_scr/Gau-206457.chk"
 ------
 UFUXOI
 ------
 Charge =  0 Multiplicity = 1

 SCF Done:  E(RHF) =  -686.760673906     A.U. after   14 cycles
 E2 =    -0.1991502141D+01 EUMP2 =    -0.68875217604696D+03
 Normal termination of Gaussian 09 at Thu Aug 26 18:01:47 2021.

 ---------------------------------------------------------
 #P Geom=AllCheck Guess=TCheck SCRF=Check MP4=FrzG4/GTBas3
 ---------------------------------------------------------

 Structure from the checkpoint file:  "/public/home/users/caep010/.cache/gau_scr/Gau-206457.chk"
 ------
 UFUXOI
 ------
 Charge =  0 Multiplicity = 1

 SCF Done:  E(RHF) =  -686.814142868     A.U. after   13 cycles
 E2 =    -0.2331217136D+01 EUMP2 =    -0.68914536000406D+03
 Normal termination of Gaussian 09 at Thu Aug 26 20:13:40 2021.

 -----------------------------------------------------------
 #P Geom=AllCheck Guess=TCheck SCRF=Check MP2=Full/GTLargeXP
 -----------------------------------------------------------

 Structure from the checkpoint file:  "/public/home/users/caep010/.cache/gau_scr/Gau-206457.chk"
 ------
 UFUXOI
 ------
 Charge =  0 Multiplicity = 1

 SCF Done:  E(RHF) =  -686.994950661     A.U. after   14 cycles
 E2 =    -0.3018412461D+01 EUMP2 =    -0.69001336312180D+03
 Normal termination of Gaussian 09 at Thu Aug 26 20:27:26 2021.
 SCF Done:  E(RHF) =  -687.049883117     A.U. after   10 cycles
 Normal termination of Gaussian 09 at Thu Aug 26 20:32:00 2021.

                         Standard orientation:
 ---------------------------------------------------------------------
 Center     Atomic      Atomic             Coordinates (Angstroms)
 Number     Number       Type             X           Y           Z
 ---------------------------------------------------------------------
      1          7           0        0.626100   -1.534963    0.000013
      2          6           0        1.093575   -0.247482    0.000088
      3          1           0        1.199325   -2.365467    0.000315
      4          7           0       -0.685806   -1.600276   -0.000066
      5          7           0        2.464680    0.048954   -0.000042
      6          6           0       -0.013610    0.607340    0.000165
      7          7           0       -0.037702    1.944285    0.001063
      8          1           0        0.836918    2.442889   -0.001234
      9          6           0       -1.091566   -0.327855   -0.000049
     10          7           0       -2.486553    0.001972   -0.000065
     11          8           0       -3.309264   -0.894392   -0.000159
     12          8           0       -2.745710    1.213013    0.000026
     13          1           0       -0.933093    2.404311   -0.002804
     14          8           0        3.250479   -0.899680    0.000179
     15          8           0        2.779672    1.244366   -0.000524
 ---------------------------------------------------------------------

 SCF Done:  E(RHF) =  -687.060854802     A.U. after    8 cycles

 The electronic state is 1-A.
 Alpha  occ. eigenvalues --  -20.62666 -20.62654 -20.62578 -20.61863 -15.88753
 Alpha  occ. eigenvalues --  -15.88076 -15.71817 -15.69268 -15.61664 -11.36869
 Alpha  occ. eigenvalues --  -11.35742 -11.35700  -1.63007  -1.62857  -1.46986
 Alpha  occ. eigenvalues --   -1.42326  -1.42137  -1.28604  -1.20328  -1.14320
 Alpha  occ. eigenvalues --   -1.03841  -1.02326  -0.87109  -0.85796  -0.83106
 Alpha  occ. eigenvalues --   -0.77564  -0.77202  -0.76419  -0.75243  -0.74766
 Alpha  occ. eigenvalues --   -0.74662  -0.72125  -0.67498  -0.67392  -0.55556
 Alpha  occ. eigenvalues --   -0.55474  -0.53514  -0.52555  -0.52286  -0.51841
 Alpha  occ. eigenvalues --   -0.48543  -0.47706  -0.43385  -0.36347
 Alpha virt. eigenvalues --    0.00704   0.03114   0.03532   0.03712   0.04859
 Alpha virt. eigenvalues --    0.05062   0.06418   0.06723   0.07253   0.07463
 Alpha virt. eigenvalues --    0.07487   0.08686   0.10208   0.10602   0.11004

 Mulliken charges:
               1
     1  N   -0.251635
     2  C    0.215882
     3  H    0.423788
     4  N   -0.266941
     5  N    0.498732
     6  C    0.394868
     7  N   -0.790530
     8  H    0.388518
     9  C    0.235885
    10  N    0.492312
    11  O   -0.376494
    12  O   -0.457981
    13  H    0.393578
    14  O   -0.454345
    15  O   -0.445637
 Sum of Mulliken charges =  -0.00000

 Dipole moment (field-independent basis, Debye):
    X=              1.1972    Y=              0.0830    Z=             -0.0077  Tot=              1.2002
 Quadrupole moment (field-independent basis, Debye-Ang):
   XX=            -94.7173   YY=            -61.3193   ZZ=            -66.1725
   XY=             -4.6839   XZ=              0.0049   YZ=             -0.0255

 Normal termination of Gaussian 09 at Thu Aug 26 21:03:55 2021.
