 Gaussian 09, Revision E.01,
 Gaussian 09:  ES64L-G09RevE.01 30-Nov-2015

 ----------------
 #P G4 OPT=calcfc
 ----------------

 ------
 VUXLUV
 ------
 Symbolic Z-matrix:
 Charge =  0 Multiplicity = 1

 SCF Done:  E(RB3LYP) =  -738.380798243     A.U. after   15 cycles
 SCF Done:  E(RB3LYP) =  -738.424431650     A.U. after   12 cycles
 SCF Done:  E(RB3LYP) =  -738.434283369     A.U. after   14 cycles
 SCF Done:  E(RB3LYP) =  -738.434581500     A.U. after   12 cycles
 SCF Done:  E(RB3LYP) =  -738.434588958     A.U. after   10 cycles
 SCF Done:  E(RB3LYP) =  -738.434589531     A.U. after    9 cycles
 SCF Done:  E(RB3LYP) =  -738.434589637     A.U. after    8 cycles
 Optimization completed.
    -- Stationary point found.
 Normal termination of Gaussian 09 at Thu Aug 26 17:10:10 2021.

 ----------------------------------------------------------
 #P Geom=AllCheck Guess=TCheck SCRF=Check B3LYP/GTBas3 Freq
 ----------------------------------------------------------

 Structure from the checkpoint file:  "/public/home/users/caep010/.cache/gau_scr/Gau-87935.chk"
 ------
 VUXLUV
 ------
 Charge =  0 Multiplicity = 1

 SCF Done:  E(RB3LYP) =  -738.434589637     A.U. after    1 cycles

  Exact polarizability: 139.113  -5.706 124.556   3.928   7.123  74.434
 Approx polarizability: 210.303  -0.444 209.588   8.445  16.980 116.770

                      1                      2                      3
                      A                      A                      A
 Frequencies --     31.3977                44.0663                56.4608
 Red. masses --      4.9798                 8.4426                 5.2015
 Frc consts  --      0.0029                 0.0097                 0.0098
 IR Inten    --      0.6450                 0.4853                 0.6060

                      4                      5                      6
                      A                      A                      A
 Frequencies --     79.5404               100.4786               111.0985
 Red. masses --      3.0494                 3.0592                 4.5182
 Frc consts  --      0.0114                 0.0182                 0.0329
 IR Inten    --      1.5584                 6.0354                 0.6354

                      7                      8                      9
                      A                      A                      A
 Frequencies --    161.4781               194.1586               228.5455
 Red. masses --      3.5343                 5.8113                 1.2588
 Frc consts  --      0.0543                 0.1291                 0.0387
 IR Inten    --      4.0337                 4.0266                 6.7293

                     10                     11                     12
                      A                      A                      A
 Frequencies --    235.4663               247.1199               281.7334
 Red. masses --      1.1624                 4.8628                 4.2149
 Frc consts  --      0.0380                 0.1750                 0.1971
 IR Inten    --    120.3595                 3.3617                 0.7713

                     13                     14                     15
                      A                      A                      A
 Frequencies --    300.8364               365.5173               425.4949
 Red. masses --      4.7120                 3.6332                 3.8473
 Frc consts  --      0.2513                 0.2860                 0.4104
 IR Inten    --      1.8765                 0.9499                 2.1068

                     16                     17                     18
                      A                      A                      A
 Frequencies --    445.9473               475.6694               510.9780
 Red. masses --      7.2362                 2.3180                 4.3861
 Frc consts  --      0.8479                 0.3090                 0.6747
 IR Inten    --      2.8022                 4.5975                 3.7939

                     19                     20                     21
                      A                      A                      A
 Frequencies --    578.2662               646.6885               667.5783
 Red. masses --      4.8935                 4.1270                 6.7503
 Frc consts  --      0.9641                 1.0169                 1.7725
 IR Inten    --      4.8192                10.1770                10.6253

                     22                     23                     24
                      A                      A                      A
 Frequencies --    758.8605               771.2094               787.2623
 Red. masses --      2.9041                 3.0221                 2.4234
 Frc consts  --      0.9853                 1.0590                 0.8850
 IR Inten    --     13.5325                 5.0772                17.7751

                     25                     26                     27
                      A                      A                      A
 Frequencies --    849.8396               861.2110               873.3963
 Red. masses --      6.2599                 2.9528                 1.3530
 Frc consts  --      2.6638                 1.2904                 0.6081
 IR Inten    --     38.2586                 7.3881                 6.1792

                     28                     29                     30
                      A                      A                      A
 Frequencies --    922.6363               944.0585               998.0172
 Red. masses --      4.0400                 2.0105                 4.3837
 Frc consts  --      2.0262                 1.0557                 2.5726
 IR Inten    --      5.2149                11.6726                55.0217

                     31                     32                     33
                      A                      A                      A
 Frequencies --   1060.9844              1077.8371              1103.5184
 Red. masses --      2.1583                 2.2750                 1.5786
 Frc consts  --      1.4314                 1.5572                 1.1326
 IR Inten    --     38.3674                 5.2670                 8.6441

                     34                     35                     36
                      A                      A                      A
 Frequencies --   1116.9206              1163.4953              1172.7035
 Red. masses --      2.5433                 2.1767                 3.7402
 Frc consts  --      1.8693                 1.7361                 3.0306
 IR Inten    --     31.3772                 9.0088               125.2808

                     37                     38                     39
                      A                      A                      A
 Frequencies --   1183.3118              1204.2129              1221.1800
 Red. masses --      1.3298                 2.2697                 1.4306
 Frc consts  --      1.0971                 1.9392                 1.2569
 IR Inten    --     11.6366                16.4196                64.1922

                     40                     41                     42
                      A                      A                      A
 Frequencies --   1230.2810              1240.5044              1290.3406
 Red. masses --      1.8637                 1.5417                 1.4938
 Frc consts  --      1.6621                 1.3978                 1.4654
 IR Inten    --      8.3198                19.4393                27.5878

                     43                     44                     45
                      A                      A                      A
 Frequencies --   1311.8828              1334.5537              1375.8672
 Red. masses --      2.3151                 1.2706                 2.2129
 Frc consts  --      2.3476                 1.3333                 2.4681
 IR Inten    --     47.9015                 3.5602                23.8259

                     46                     47                     48
                      A                      A                      A
 Frequencies --   1383.1573              1394.7028              1401.6544
 Red. masses --      1.6731                 5.1147                 1.6189
 Frc consts  --      1.8859                 5.8618                 1.8739
 IR Inten    --     41.4121               275.4151                36.1082

                     49                     50                     51
                      A                      A                      A
 Frequencies --   1424.1513              1445.4058              1468.7084
 Red. masses --      3.3569                 1.5571                 1.2433
 Frc consts  --      4.0114                 1.9167                 1.5801
 IR Inten    --      2.3171                15.8517                12.5426

                     52                     53                     54
                      A                      A                      A
 Frequencies --   1480.7460              1485.7203              1502.8980
 Red. masses --      1.1687                 1.0477                 1.0652
 Frc consts  --      1.5098                 1.3626                 1.4175
 IR Inten    --      1.2001                 5.7275                11.6842

                     55                     56                     57
                      A                      A                      A
 Frequencies --   1520.4186              1525.9725              1531.1416
 Red. masses --      3.5503                 1.1182                 3.8678
 Frc consts  --      4.8355                 1.5341                 5.3425
 IR Inten    --    128.6645                 0.4069                 0.2933

                     58                     59                     60
                      A                      A                      A
 Frequencies --   1629.2703              2956.2950              2976.9610
 Red. masses --     12.7360                 1.0586                 1.0400
 Frc consts  --     19.9192                 5.4509                 5.4302
 IR Inten    --    239.7736                31.3138                73.2033

                     61                     62                     63
                      A                      A                      A
 Frequencies --   3002.6696              3023.0287              3048.7609
 Red. masses --      1.0964                 1.1034                 1.0846
 Frc consts  --      5.8240                 5.9411                 5.9396
 IR Inten    --     47.2481                48.5794                12.7951

                     64                     65                     66
                      A                      A                      A
 Frequencies --   3078.7809              3122.4863              3189.0678
 Red. masses --      1.0696                 1.0965                 1.0963
 Frc consts  --      5.9737                 6.2988                 6.5689
 IR Inten    --     25.2137                22.4704                 0.0872

                     67                     68                     69
                      A                      A                      A
 Frequencies --   3255.2266              3281.9862              3840.1516
 Red. masses --      1.0919                 1.1037                 1.0667
 Frc consts  --      6.8169                 7.0043                 9.2679
 IR Inten    --      3.7696                 0.4009                27.0037

 - Thermochemistry -
 -------------------
 Temperature   298.150 Kelvin.  Pressure   1.00000 Atm.
 Atom     1 has atomic number  7 and mass  14.00307

 Molecular mass:   201.07496 amu.
 Principal axes and moments of inertia in atomic units:
                           1         2         3
     Eigenvalues --  1592.545824208.014065350.79526
           X            0.99973  -0.02289   0.00312
           Y            0.02289   0.99973  -0.00258
           Z           -0.00306   0.00265   0.99999
 This molecule is an asymmetric top.
 Rotational symmetry number  1.
 Warning -- assumption of classical behavior for rotation
           may cause significant error
 Rotational temperatures (Kelvin)      0.05439     0.02058     0.01619
 Rotational constants (GHZ):           1.13324     0.42888     0.33728
 Zero-point vibrational energy     514465.8 (Joules/Mol)
                                  122.96028 (Kcal/Mol)
 Warning -- explicit consideration of  19 degrees of freedom as
           vibrations may cause significant error
 Vibrational temperatures:     45.17    63.40    81.23   114.44   144.57
          (Kelvin)            159.85   232.33   279.35   328.83   338.78
                              355.55   405.35   432.84   525.90   612.19
                              641.62   684.38   735.18   832.00   930.44
                              960.50  1091.83  1109.60  1132.69  1222.73
                             1239.09  1256.62  1327.47  1358.29  1435.92
                             1526.52  1550.77  1587.71  1607.00  1674.01
                             1687.26  1702.52  1732.59  1757.00  1770.10
                             1784.81  1856.51  1887.50  1920.12  1979.56
                             1990.05  2006.66  2016.67  2049.03  2079.61
                             2113.14  2130.46  2137.62  2162.33  2187.54
                             2195.53  2202.97  2344.15  4253.44  4283.18
                             4320.17  4349.46  4386.48  4429.67  4492.56
                             4588.35  4683.54  4722.04  5525.11

 Zero-point correction=                           0.195950 (Hartree/Particle)
 Thermal correction to Energy=                    0.209824
 Thermal correction to Enthalpy=                  0.210768
 Thermal correction to Gibbs Free Energy=         0.153489
 Sum of electronic and zero-point Energies=           -738.238640
 Sum of electronic and thermal Energies=              -738.224766
 Sum of electronic and thermal Enthalpies=            -738.223822
 Sum of electronic and thermal Free Energies=         -738.281101

                     E (Thermal)             CV                S
                      KCal/Mol        Cal/Mol-Kelvin    Cal/Mol-Kelvin
 Total                  131.666             49.244            120.553
 Electronic               0.000              0.000              0.000
 Translational            0.889              2.981             41.800
 Rotational               0.889              2.981             31.950
 Vibrational            129.889             43.282             46.803
 Vibration     1          0.594              1.983              5.739
 Vibration     2          0.595              1.980              5.067
 Vibration     3          0.596              1.975              4.577
 Vibration     4          0.600              1.963              3.902
 Vibration     5          0.604              1.949              3.445
 Vibration     6          0.607              1.940              3.250
 Vibration     7          0.622              1.890              2.532
 Vibration     8          0.635              1.848              2.188
 Vibration     9          0.651              1.797              1.890
 Vibration    10          0.655              1.787              1.837
 Vibration    11          0.661              1.768              1.751
 Vibration    12          0.681              1.707              1.523
 Vibration    13          0.693              1.672              1.412
 Vibration    14          0.739              1.543              1.099
 Vibration    15          0.787              1.415              0.874
 Vibration    16          0.805              1.370              0.808
 Vibration    17          0.832              1.304              0.722
 Vibration    18          0.866              1.226              0.631
 Vibration    19          0.935              1.078              0.489

 Optimization completed.
    -- Stationary point found.
 Normal termination of Gaussian 09 at Thu Aug 26 17:14:18 2021.

 -----------------------------------------------------------------
 #P Geom=AllCheck Guess=TCheck SCRF=Check CCSD(T,E4T,FrzG4)/GTBas1
 -----------------------------------------------------------------

 Structure from the checkpoint file:  "/public/home/users/caep010/.cache/gau_scr/Gau-87935.chk"
 ------
 VUXLUV
 ------
 Charge =  0 Multiplicity = 1

 SCF Done:  E(RHF) =  -734.099287399     A.U. after   16 cycles
 E2 =    -0.2132039696D+01 EUMP2 =    -0.73623132709491D+03
 CCSD(T)
 CCSD(T)= -0.73636373321D+03
 \CCSD(T)=-736.3637332\RMSD=4.300e-09\PG=C01 [X(C7H11N3O4)]\\@
 Normal termination of Gaussian 09 at Thu Aug 26 20:05:43 2021.

 ---------------------------------------------------------
 #P Geom=AllCheck Guess=TCheck SCRF=Check MP4=FrzG4/GTBas2
 ---------------------------------------------------------

 Structure from the checkpoint file:  "/public/home/users/caep010/.cache/gau_scr/Gau-87935.chk"
 ------
 VUXLUV
 ------
 Charge =  0 Multiplicity = 1

 SCF Done:  E(RHF) =  -734.120089533     A.U. after   13 cycles
 E2 =    -0.2163495168D+01 EUMP2 =    -0.73628358470108D+03
 Normal termination of Gaussian 09 at Thu Aug 26 21:40:55 2021.

 ---------------------------------------------------------
 #P Geom=AllCheck Guess=TCheck SCRF=Check MP4=FrzG4/GTBas3
 ---------------------------------------------------------

 Structure from the checkpoint file:  "/public/home/users/caep010/.cache/gau_scr/Gau-87935.chk"
 ------
 VUXLUV
 ------
 Charge =  0 Multiplicity = 1

 SCF Done:  E(RHF) =  -734.178873940     A.U. after   12 cycles
 E2 =    -0.2577606602D+01 EUMP2 =    -0.73675648054196D+03
 Normal termination of Gaussian 09 at Fri Aug 27 11:22:26 2021.

 -----------------------------------------------------------
 #P Geom=AllCheck Guess=TCheck SCRF=Check MP2=Full/GTLargeXP
 -----------------------------------------------------------

 Structure from the checkpoint file:  "/public/home/users/caep010/.cache/gau_scr/Gau-87935.chk"
 ------
 VUXLUV
 ------
 Charge =  0 Multiplicity = 1

 SCF Done:  E(RHF) =  -734.365965709     A.U. after   14 cycles
 E2 =    -0.3361623901D+01 EUMP2 =    -0.73772758961014D+03
 Normal termination of Gaussian 09 at Fri Aug 27 11:44:51 2021.
 SCF Done:  E(RHF) =  -734.423111864     A.U. after    9 cycles
 Normal termination of Gaussian 09 at Fri Aug 27 11:53:17 2021.

                         Standard orientation:
 ---------------------------------------------------------------------
 Center     Atomic      Atomic             Coordinates (Angstroms)
 Number     Number       Type             X           Y           Z
 ---------------------------------------------------------------------
      1          7           0        0.950918   -0.617189   -0.473014
      2          6           0        1.950792    0.248402   -0.103966
      3          7           0        3.129341   -0.323140   -0.018258
      4          6           0        2.906796   -1.626694   -0.335322
      5          6           0        1.572813   -1.828979   -0.619104
      6          7           0        1.734893    1.646151    0.183948
      7          8           0        0.564318    2.023817    0.291749
      8          8           0        2.717459    2.353789    0.309670
      9          6           0       -0.486512   -0.414212   -0.682000
     10          1           0       -0.663169    0.587182   -1.063269
     11          6           0       -1.283136   -0.632213    0.613945
     12          1           0       -0.995704    0.147263    1.329515
     13          1           0       -0.800758   -1.150038   -1.427331
     14          8           0       -1.060669   -1.932381    1.142182
     15          1           0       -0.247237   -1.919515    1.654518
     16          1           0        1.014973   -2.703058   -0.911984
     17          6           0       -2.783197   -0.540235    0.346610
     18          1           0       -3.322719   -0.636170    1.301504
     19          1           0       -3.089439   -1.389219   -0.289324
     20          8           0       -3.053919    0.690210   -0.277964
     21          6           0       -4.423829    0.884630   -0.545906
     22          1           0       -4.526408    1.861428   -1.023481
     23          1           0       -4.819779    0.111147   -1.222402
     24          1           0       -5.022527    0.873332    0.377741
     25          1           0        3.706826   -2.350770   -0.344856
 ---------------------------------------------------------------------

 SCF Done:  E(RHF) =  -734.434941749     A.U. after    8 cycles

 The electronic state is 1-A.
 Alpha  occ. eigenvalues --  -20.61105 -20.60331 -20.58004 -20.57119 -15.86465
 Alpha  occ. eigenvalues --  -15.66360 -15.59004 -11.36490 -11.30407 -11.29569
 Alpha  occ. eigenvalues --  -11.29279 -11.29158 -11.28319 -11.27459  -1.61416
 Alpha  occ. eigenvalues --   -1.40706  -1.40050  -1.39002  -1.38033  -1.22821
 Alpha  occ. eigenvalues --   -1.09909  -1.06621  -0.99334  -0.95554  -0.91362
 Alpha  occ. eigenvalues --   -0.84957  -0.83873  -0.81259  -0.76291  -0.74115
 Alpha  occ. eigenvalues --   -0.73608  -0.72734  -0.69498  -0.68485  -0.66793
 Alpha  occ. eigenvalues --   -0.65432  -0.64238  -0.63059  -0.62341  -0.59690
 Alpha  occ. eigenvalues --   -0.58482  -0.56206  -0.55283  -0.51500  -0.50795
 Alpha  occ. eigenvalues --   -0.50630  -0.49279  -0.47990  -0.47510  -0.45943
 Alpha  occ. eigenvalues --   -0.44184  -0.41645  -0.35362
 Alpha virt. eigenvalues --    0.02538   0.03075   0.03492   0.03864   0.04260
 Alpha virt. eigenvalues --    0.04612   0.05410   0.05479   0.06560   0.06798
 Alpha virt. eigenvalues --    0.07029   0.07399   0.07619   0.08689   0.08914

 Mulliken charges:
               1
     1  N    0.049203
     2  C    0.357298
     3  N   -0.459857
     4  C   -0.074751
     5  C   -0.229790
     6  N    0.502756
     7  O   -0.442327
     8  O   -0.378752
     9  C   -0.316218
    10  H    0.250065
    11  C    0.132253
    12  H    0.200424
    13  H    0.202664
    14  O   -0.615914
    15  H    0.391602
    16  H    0.239487
    17  C   -0.171893
    18  H    0.155318
    19  H    0.152982
    20  O   -0.274822
    21  C   -0.396786
    22  H    0.183722
    23  H    0.152709
    24  H    0.157499
    25  H    0.233128
 Sum of Mulliken charges =  -0.00000

 Dipole moment (field-independent basis, Debye):
    X=             -3.8367    Y=             -4.2972    Z=             -1.1471  Tot=              5.8738
 Quadrupole moment (field-independent basis, Debye-Ang):
   XX=            -84.1745   YY=            -88.8907   ZZ=            -78.9953
   XY=            -11.3990   XZ=              0.4309   YZ=              0.4694

 Normal termination of Gaussian 09 at Fri Aug 27 12:53:16 2021.
