 Gaussian 09, Revision E.01,
 Gaussian 09:  ES64L-G09RevE.01 30-Nov-2015

 ----------------
 #P G4 OPT=calcfc
 ----------------

 ------
 VUBZUN
 ------
 Symbolic Z-matrix:
 Charge =  0 Multiplicity = 1

 SCF Done:  E(RB3LYP) =  -657.419076189     A.U. after   15 cycles
 SCF Done:  E(RB3LYP) =  -657.457902891     A.U. after   13 cycles
 SCF Done:  E(RB3LYP) =  -657.462731647     A.U. after   14 cycles
 SCF Done:  E(RB3LYP) =  -657.463276827     A.U. after   13 cycles
 SCF Done:  E(RB3LYP) =  -657.463292132     A.U. after   11 cycles
 SCF Done:  E(RB3LYP) =  -657.463293190     A.U. after    8 cycles
 Optimization completed.
    -- Stationary point found.
 Normal termination of Gaussian 09 at Thu Aug 26 01:56:45 2021.

 ----------------------------------------------------------
 #P Geom=AllCheck Guess=TCheck SCRF=Check B3LYP/GTBas3 Freq
 ----------------------------------------------------------

 Structure from the checkpoint file:  "/public/home/users/caep010/.cache/gau_scr/Gau-105087.chk"
 ------
 VUBZUN
 ------
 Charge =  0 Multiplicity = 1

 SCF Done:  E(RB3LYP) =  -657.463293190     A.U. after    1 cycles

  Exact polarizability: 101.369  -1.152  70.992   5.258   1.256  52.186
 Approx polarizability: 138.634  -1.363 135.374  15.098   9.106  90.109

                      1                      2                      3
                      A                      A                      A
 Frequencies --     48.1486                70.1956                89.1138
 Red. masses --      7.2153                10.8940                10.7401
 Frc consts  --      0.0099                 0.0316                 0.0503
 IR Inten    --      5.3054                 1.4420                 1.8056

                      4                      5                      6
                      A                      A                      A
 Frequencies --    135.0018               181.9741               227.1914
 Red. masses --      5.2904                 6.5148                 6.4196
 Frc consts  --      0.0568                 0.1271                 0.1952
 IR Inten    --      1.1331                 2.4789                 4.3147

                      7                      8                      9
                      A                      A                      A
 Frequencies --    236.7836               344.6808               412.2347
 Red. masses --      5.7520                 3.0372                 3.7436
 Frc consts  --      0.1900                 0.2126                 0.3748
 IR Inten    --      5.1963                 7.1459                 1.4965

                     10                     11                     12
                      A                      A                      A
 Frequencies --    509.1633               570.2283               608.2976
 Red. masses --      5.3561                 4.0724                 6.0896
 Frc consts  --      0.8181                 0.7802                 1.3276
 IR Inten    --      4.4104                 0.1799                 5.9734

                     13                     14                     15
                      A                      A                      A
 Frequencies --    696.7321               777.6664               783.8123
 Red. masses --      8.3237                13.5974                11.5524
 Frc consts  --      2.3807                 4.8450                 4.1816
 IR Inten    --     37.8073                14.3385                23.6740

                     16                     17                     18
                      A                      A                      A
 Frequencies --    818.0546               858.2407               871.6641
 Red. masses --      7.6554                 5.7300                 1.9186
 Frc consts  --      3.0184                 2.4867                 0.8589
 IR Inten    --     13.5101               168.7655                51.2095

                     19                     20                     21
                      A                      A                      A
 Frequencies --    886.0756               932.2768              1013.9428
 Red. masses --      2.6167                 4.8827                 3.1195
 Frc consts  --      1.2104                 2.5004                 1.8895
 IR Inten    --     39.0436                47.3515                 8.2620

                     22                     23                     24
                      A                      A                      A
 Frequencies --   1032.0921              1127.2884              1131.9882
 Red. masses --      2.2674                 1.1705                 2.2346
 Frc consts  --      1.4231                 0.8764                 1.6871
 IR Inten    --      1.6003                 3.5234                19.0014

                     25                     26                     27
                      A                      A                      A
 Frequencies --   1162.6843              1171.8530              1200.3079
 Red. masses --      3.1065                 3.9231                 1.6224
 Frc consts  --      2.4743                 3.1741                 1.3772
 IR Inten    --      5.7897                25.6228               150.6460

                     28                     29                     30
                      A                      A                      A
 Frequencies --   1255.0226              1282.9988              1299.3462
 Red. masses --      1.7618                 1.4985                 1.7569
 Frc consts  --      1.6350                 1.4533                 1.7476
 IR Inten    --      2.3003                 0.7033               198.8381

                     31                     32                     33
                      A                      A                      A
 Frequencies --   1336.3479              1378.3899              1401.3997
 Red. masses --      3.3081                 4.2802                 1.8655
 Frc consts  --      3.4807                 4.7913                 2.1586
 IR Inten    --    125.2932               304.7555                20.2899

                     34                     35                     36
                      A                      A                      A
 Frequencies --   1488.7961              1508.8670              1656.0675
 Red. masses --      1.0763                 1.1212                14.3485
 Frc consts  --      1.4056                 1.5040                23.1853
 IR Inten    --      6.2593                 0.1426               265.7389

                     37                     38                     39
                      A                      A                      A
 Frequencies --   1763.3933              3075.4991              3080.6908
 Red. masses --     14.5026                 1.0566                 1.0598
 Frc consts  --     26.5702                 5.8886                 5.9263
 IR Inten    --    384.9595                13.4999                 6.2207

                     40                     41                     42
                      A                      A                      A
 Frequencies --   3133.7148              3140.2331              3143.8607
 Red. masses --      1.0963                 1.1085                 1.1032
 Frc consts  --      6.3432                 6.4402                 6.4246
 IR Inten    --      4.1240                 2.7071                11.3976

 - Thermochemistry -
 -------------------
 Temperature   298.150 Kelvin.  Pressure   1.00000 Atm.
 Atom     1 has atomic number  7 and mass  14.00307

 Molecular mass:   163.02292 amu.
 Principal axes and moments of inertia in atomic units:
                           1         2         3
     Eigenvalues --   497.617583479.255293745.78667
           X            1.00000  -0.00223   0.00081
           Y            0.00224   0.99978  -0.02083
           Z           -0.00076   0.02083   0.99978
 This molecule is an asymmetric top.
 Rotational symmetry number  1.
 Warning -- assumption of classical behavior for rotation
           may cause significant error
 Rotational temperatures (Kelvin)      0.17406     0.02489     0.02312
 Rotational constants (GHZ):           3.62676     0.51871     0.48181
 Zero-point vibrational energy     286160.6 (Joules/Mol)
                                   68.39403 (Kcal/Mol)
 Warning -- explicit consideration of  12 degrees of freedom as
           vibrations may cause significant error
 Vibrational temperatures:     69.28   101.00   128.21   194.24   261.82
          (Kelvin)            326.88   340.68   495.92   593.11   732.57
                              820.43   875.20  1002.44  1118.89  1127.73
                             1177.00  1234.82  1254.13  1274.86  1341.34
                             1458.84  1484.95  1621.91  1628.68  1672.84
                             1686.03  1726.97  1805.70  1845.95  1869.47
                             1922.70  1983.19  2016.30  2142.04  2170.92
                             2382.71  2537.13  4424.95  4432.42  4508.71
                             4518.09  4523.31

 Zero-point correction=                           0.108993 (Hartree/Particle)
 Thermal correction to Energy=                    0.118538
 Thermal correction to Enthalpy=                  0.119482
 Thermal correction to Gibbs Free Energy=         0.072500
 Sum of electronic and zero-point Energies=           -657.354300
 Sum of electronic and thermal Energies=              -657.344755
 Sum of electronic and thermal Enthalpies=            -657.343811
 Sum of electronic and thermal Free Energies=         -657.390793

                     E (Thermal)             CV                S
                      KCal/Mol        Cal/Mol-Kelvin    Cal/Mol-Kelvin
 Total                   74.384             33.426             98.882
 Electronic               0.000              0.000              0.000
 Translational            0.889              2.981             41.175
 Rotational               0.889              2.981             30.251
 Vibrational             72.606             27.465             27.456
 Vibration     1          0.595              1.978              4.892
 Vibration     2          0.598              1.968              4.148
 Vibration     3          0.602              1.957              3.679
 Vibration     4          0.613              1.918              2.874
 Vibration     5          0.630              1.864              2.308
 Vibration     6          0.651              1.800              1.901
 Vibration     7          0.656              1.784              1.827
 Vibration     8          0.723              1.586              1.190
 Vibration     9          0.776              1.444              0.919
 Vibration    10          0.864              1.230              0.636
 Vibration    11          0.926              1.096              0.504
 Vibration    12          0.967              1.014              0.436

 Optimization completed.
    -- Stationary point found.
 Normal termination of Gaussian 09 at Thu Aug 26 01:58:23 2021.

 -----------------------------------------------------------------
 #P Geom=AllCheck Guess=TCheck SCRF=Check CCSD(T,E4T,FrzG4)/GTBas1
 -----------------------------------------------------------------

 Structure from the checkpoint file:  "/public/home/users/caep010/.cache/gau_scr/Gau-105087.chk"
 ------
 VUBZUN
 ------
 Charge =  0 Multiplicity = 1

 SCF Done:  E(RHF) =  -653.813478762     A.U. after   15 cycles
 E2 =    -0.1816461705D+01 EUMP2 =    -0.65562994046655D+03
 CCSD(T)
 CCSD(T)= -0.65571416556D+03
 655.6469133\CCSD=-655.6391865\CCSD(T)=-655.7141656\RMSD=4.664e-09\PG=C
 Normal termination of Gaussian 09 at Thu Aug 26 02:37:15 2021.

 ---------------------------------------------------------
 #P Geom=AllCheck Guess=TCheck SCRF=Check MP4=FrzG4/GTBas2
 ---------------------------------------------------------

 Structure from the checkpoint file:  "/public/home/users/caep010/.cache/gau_scr/Gau-105087.chk"
 ------
 VUBZUN
 ------
 Charge =  0 Multiplicity = 1

 SCF Done:  E(RHF) =  -653.832474602     A.U. after   13 cycles
 E2 =    -0.1841797981D+01 EUMP2 =    -0.65567427258290D+03
 Normal termination of Gaussian 09 at Thu Aug 26 02:51:25 2021.

 ---------------------------------------------------------
 #P Geom=AllCheck Guess=TCheck SCRF=Check MP4=FrzG4/GTBas3
 ---------------------------------------------------------

 Structure from the checkpoint file:  "/public/home/users/caep010/.cache/gau_scr/Gau-105087.chk"
 ------
 VUBZUN
 ------
 Charge =  0 Multiplicity = 1

 SCF Done:  E(RHF) =  -653.883293297     A.U. after   13 cycles
 E2 =    -0.2183326238D+01 EUMP2 =    -0.65606661953501D+03
 Normal termination of Gaussian 09 at Thu Aug 26 04:25:30 2021.

 -----------------------------------------------------------
 #P Geom=AllCheck Guess=TCheck SCRF=Check MP2=Full/GTLargeXP
 -----------------------------------------------------------

 Structure from the checkpoint file:  "/public/home/users/caep010/.cache/gau_scr/Gau-105087.chk"
 ------
 VUBZUN
 ------
 Charge =  0 Multiplicity = 1

 SCF Done:  E(RHF) =  -654.057298477     A.U. after   13 cycles
 E2 =    -0.2820009973D+01 EUMP2 =    -0.65687730844984D+03
 Normal termination of Gaussian 09 at Thu Aug 26 04:36:03 2021.
 SCF Done:  E(RHF) =  -654.111183579     A.U. after   10 cycles
 Normal termination of Gaussian 09 at Thu Aug 26 04:39:46 2021.

                         Standard orientation:
 ---------------------------------------------------------------------
 Center     Atomic      Atomic             Coordinates (Angstroms)
 Number     Number       Type             X           Y           Z
 ---------------------------------------------------------------------
      1          7           0        1.316285   -0.118772   -0.357078
      2          6           0        0.682056   -1.239191    0.363821
      3          7           0        2.662812    0.143674   -0.184545
      4          8           0        3.377803   -0.825008    0.026056
      5          8           0        3.002973    1.311921   -0.293514
      6          6           0       -0.527424   -0.309525    0.629930
      7          8           0       -1.611640   -0.740967   -0.191202
      8          1           0       -0.853233   -0.209669    1.663452
      9          7           0       -2.762820    0.095788   -0.087689
     10          8           0       -3.671200   -0.287686   -0.764014
     11          8           0       -2.677453    1.053033    0.644121
     12          6           0        0.301288    0.870485    0.059516
     13          1           0        0.672213    1.568461    0.814196
     14          1           0        1.231643   -1.532085    1.261991
     15          1           0        0.483119   -2.113357   -0.257095
     16          1           0       -0.147073    1.420869   -0.768540
 ---------------------------------------------------------------------

 SCF Done:  E(RHF) =  -654.122038047     A.U. after    7 cycles

 The electronic state is 1-A.
 Alpha  occ. eigenvalues --  -20.69242 -20.65233 -20.65155 -20.61137 -20.61121
 Alpha  occ. eigenvalues --  -15.94510 -15.89382 -15.66189 -11.35567 -11.32124
 Alpha  occ. eigenvalues --  -11.31756  -1.69293  -1.63595  -1.47562  -1.45759
 Alpha  occ. eigenvalues --   -1.42115  -1.33179  -1.11379  -0.99866  -0.97759
 Alpha  occ. eigenvalues --   -0.89159  -0.84006  -0.82276  -0.80171  -0.79267
 Alpha  occ. eigenvalues --   -0.78118  -0.76706  -0.74991  -0.69461  -0.66599
 Alpha  occ. eigenvalues --   -0.63780  -0.62456  -0.61054  -0.57917  -0.55322
 Alpha  occ. eigenvalues --   -0.54351  -0.52250  -0.51588  -0.50656  -0.49917
 Alpha  occ. eigenvalues --   -0.47479  -0.44763
 Alpha virt. eigenvalues --    0.02555   0.03738   0.04052   0.04764   0.06197
 Alpha virt. eigenvalues --    0.06390   0.06746   0.07353   0.07415   0.08124
 Alpha virt. eigenvalues --    0.08840   0.09689   0.10088   0.10526   0.10698

 Mulliken charges:
               1
     1  N    0.041965
     2  C   -0.304492
     3  N    0.565007
     4  O   -0.434099
     5  O   -0.435774
     6  C    0.110582
     7  O   -0.248414
     8  H    0.205570
     9  N    0.657449
    10  O   -0.343857
    11  O   -0.381363
    12  C   -0.312515
    13  H    0.223694
    14  H    0.226819
    15  H    0.217602
    16  H    0.211826
 Sum of Mulliken charges =  -0.00000

 Dipole moment (field-independent basis, Debye):
    X=             -1.5958    Y=             -1.0202    Z=              2.0437  Tot=              2.7864
 Quadrupole moment (field-independent basis, Debye-Ang):
   XX=            -89.8995   YY=            -63.0745   ZZ=            -59.6874
   XY=             -0.7468   XZ=             -0.3791   YZ=             -2.1304

 Normal termination of Gaussian 09 at Thu Aug 26 05:02:26 2021.
