 Gaussian 09, Revision E.01,
 Gaussian 09:  ES64L-G09RevE.01 30-Nov-2015

 ----------------
 #P G4 OPT=calcfc
 ----------------

 ------
 VACRAT
 ------
 Symbolic Z-matrix:
 Charge =  0 Multiplicity = 1

 SCF Done:  E(RB3LYP) =  -622.444036582     A.U. after   16 cycles
 SCF Done:  E(RB3LYP) =  -622.567102400     A.U. after   15 cycles
 SCF Done:  E(RB3LYP) =  -622.636503959     A.U. after   16 cycles
 SCF Done:  E(RB3LYP) =  -622.636917380     A.U. after   16 cycles
 SCF Done:  E(RB3LYP) =  -622.646481090     A.U. after   15 cycles
 SCF Done:  E(RB3LYP) =  -622.646566118     A.U. after   14 cycles
 SCF Done:  E(RB3LYP) =  -622.645587978     A.U. after   13 cycles
 SCF Done:  E(RB3LYP) =  -622.647100940     A.U. after   10 cycles
 SCF Done:  E(RB3LYP) =  -622.647986767     A.U. after   12 cycles
 SCF Done:  E(RB3LYP) =  -622.648069275     A.U. after   12 cycles
 SCF Done:  E(RB3LYP) =  -622.648113359     A.U. after    9 cycles
 SCF Done:  E(RB3LYP) =  -622.648113918     A.U. after    8 cycles
 SCF Done:  E(RB3LYP) =  -622.648114012     A.U. after    7 cycles
 Optimization completed.
    -- Stationary point found.
 Normal termination of Gaussian 09 at Tue Aug 24 22:02:13 2021.

 ----------------------------------------------------------
 #P Geom=AllCheck Guess=TCheck SCRF=Check B3LYP/GTBas3 Freq
 ----------------------------------------------------------

 Structure from the checkpoint file:  "/public/home/users/caep010/.cache/gau_scr/Gau-85789.chk"
 ------
 VACRAT
 ------
 Charge =  0 Multiplicity = 1

 SCF Done:  E(RB3LYP) =  -622.648114012     A.U. after    1 cycles

  Exact polarizability: 171.702  -5.341 103.835   0.000   0.003  46.463
 Approx polarizability: 271.626 -15.718 199.779   0.006   0.002  75.088

                      1                      2                      3
                      A                      A                      A
 Frequencies --     46.1765                71.5902                96.0529
 Red. masses --     12.2925                 5.0419                 1.0504
 Frc consts  --      0.0154                 0.0152                 0.0057
 IR Inten    --      0.1706                 0.3486                 0.0600

                      4                      5                      6
                      A                      A                      A
 Frequencies --    165.9277               172.6203               230.6708
 Red. masses --      6.1918                 6.3942                 4.4402
 Frc consts  --      0.1004                 0.1123                 0.1392
 IR Inten    --      0.0130                 2.4037                 0.0522

                      7                      8                      9
                      A                      A                      A
 Frequencies --    294.8340               319.4508               334.2980
 Red. masses --      3.3432                 8.0844                 4.6214
 Frc consts  --      0.1712                 0.4861                 0.3043
 IR Inten    --      2.6326                 2.7356                 1.3734

                     10                     11                     12
                      A                      A                      A
 Frequencies --    394.9327               431.7690               505.2044
 Red. masses --      8.0878                 3.6158                 4.3825
 Frc consts  --      0.7432                 0.3972                 0.6590
 IR Inten    --      3.7900                 4.7852                 6.5253

                     13                     14                     15
                      A                      A                      A
 Frequencies --    560.9280               580.4734               608.2933
 Red. masses --      2.9698                 7.2256                 6.1020
 Frc consts  --      0.5505                 1.4345                 1.3303
 IR Inten    --     11.4658                 0.4069                 1.7295

                     16                     17                     18
                      A                      A                      A
 Frequencies --    671.1266               733.1190               736.6866
 Red. masses --      1.0981                 6.6769                 4.7248
 Frc consts  --      0.2914                 2.1143                 1.5108
 IR Inten    --     68.5252                 3.9304                 4.8861

                     19                     20                     21
                      A                      A                      A
 Frequencies --    792.2914               793.8179               850.5270
 Red. masses --     10.8220                12.5697                 1.4680
 Frc consts  --      4.0025                 4.6668                 0.6257
 IR Inten    --     12.1303                 7.7697                38.1027

                     22                     23                     24
                      A                      A                      A
 Frequencies --    885.8037               888.8808               948.8566
 Red. masses --      7.8198                 1.3099                 2.9644
 Frc consts  --      3.6151                 0.6098                 1.5725
 IR Inten    --     30.1559                 1.1276                 5.2570

                     25                     26                     27
                      A                      A                      A
 Frequencies --    995.8643              1033.4307              1039.3151
 Red. masses --      1.2851                 1.6370                 6.7769
 Frc consts  --      0.7509                 1.0301                 4.3130
 IR Inten    --      0.6469                20.6646                67.8111

                     28                     29                     30
                      A                      A                      A
 Frequencies --   1067.3543              1154.2401              1169.2087
 Red. masses --      1.4828                 2.3201                 1.4775
 Frc consts  --      0.9953                 1.8212                 1.1900
 IR Inten    --      3.4629                29.4194                41.6685

                     31                     32                     33
                      A                      A                      A
 Frequencies --   1260.4956              1289.7652              1293.6818
 Red. masses --      3.2091                 2.8915                 2.3778
 Frc consts  --      3.0041                 2.8340                 2.3446
 IR Inten    --     16.4965                17.6188               117.2057

                     34                     35                     36
                      A                      A                      A
 Frequencies --   1335.8081              1383.4487              1422.5921
 Red. masses --      4.5692                 2.9804                 1.2613
 Frc consts  --      4.8037                 3.3609                 1.5039
 IR Inten    --    822.9576               102.7951                 0.0288

                     37                     38                     39
                      A                      A                      A
 Frequencies --   1431.8090              1481.9968              1498.4147
 Red. masses --      2.7597                 1.0424                 1.1400
 Frc consts  --      3.3334                 1.3489                 1.5080
 IR Inten    --     20.6185                 5.9510                23.2795

                     40                     41                     42
                      A                      A                      A
 Frequencies --   1541.5458              1559.4906              1614.9510
 Red. masses --      3.2442                 3.8767                 5.3438
 Frc consts  --      4.5422                 5.5549                 8.2114
 IR Inten    --    379.1149               177.6966                74.1307

                     43                     44                     45
                      A                      A                      A
 Frequencies --   1633.0593              1681.7469              3036.0945
 Red. masses --      2.6226                 6.2889                 1.0371
 Frc consts  --      4.1209                10.4797                 5.6326
 IR Inten    --    276.5990               100.9335                27.5855

                     46                     47                     48
                      A                      A                      A
 Frequencies --   3091.3431              3121.8038              3179.6577
 Red. masses --      1.1004                 1.1004                 1.0701
 Frc consts  --      6.1959                 6.3183                 6.3744
 IR Inten    --     10.9694                10.5196               140.3342

                     49                     50                     51
                      A                      A                      A
 Frequencies --   3181.1431              3235.0151              3285.8053
 Red. masses --      1.0831                 1.0927                 1.0915
 Frc consts  --      6.4578                 6.7377                 6.9433
 IR Inten    --     65.4336                 1.4702                11.6623

 - Thermochemistry -
 -------------------
 Temperature   298.150 Kelvin.  Pressure   1.00000 Atm.
 Atom     1 has atomic number  8 and mass  15.99491

 Molecular mass:   169.04874 amu.
 Principal axes and moments of inertia in atomic units:
                           1         2         3
     Eigenvalues --   812.453073135.117063936.37606
           X            0.99992  -0.01275   0.00000
           Y            0.01275   0.99992   0.00001
           Z           -0.00000  -0.00001   1.00000
 This molecule is an asymmetric top.
 Rotational symmetry number  1.
 Warning -- assumption of classical behavior for rotation
           may cause significant error
 Rotational temperatures (Kelvin)      0.10661     0.02763     0.02200
 Rotational constants (GHZ):           2.22135     0.57565     0.45848
 Zero-point vibrational energy     365659.0 (Joules/Mol)
                                   87.39460 (Kcal/Mol)
 Warning -- explicit consideration of  15 degrees of freedom as
           vibrations may cause significant error
 Vibrational temperatures:     66.44   103.00   138.20   238.73   248.36
          (Kelvin)            331.88   424.20   459.62   480.98   568.22
                              621.22   726.88   807.05   835.17   875.20
                              965.60  1054.79  1059.93  1139.93  1142.13
                             1223.72  1274.47  1278.90  1365.19  1432.82
                             1486.87  1495.34  1535.68  1660.69  1682.23
                             1813.57  1855.68  1861.32  1921.93  1990.47
                             2046.79  2060.05  2132.26  2155.88  2217.94
                             2243.76  2323.55  2349.61  2419.66  4368.26
                             4447.75  4491.57  4574.81  4576.95  4654.46
                             4727.54

 Zero-point correction=                           0.139272 (Hartree/Particle)
 Thermal correction to Energy=                    0.149711
 Thermal correction to Enthalpy=                  0.150655
 Thermal correction to Gibbs Free Energy=         0.102288
 Sum of electronic and zero-point Energies=           -622.508842
 Sum of electronic and thermal Energies=              -622.498403
 Sum of electronic and thermal Enthalpies=            -622.497459
 Sum of electronic and thermal Free Energies=         -622.545826

                     E (Thermal)             CV                S
                      KCal/Mol        Cal/Mol-Kelvin    Cal/Mol-Kelvin
 Total                   93.945             38.604            101.798
 Electronic               0.000              0.000              0.000
 Translational            0.889              2.981             41.283
 Rotational               0.889              2.981             30.684
 Vibrational             92.168             32.642             29.831
 Vibration     1          0.595              1.979              4.975
 Vibration     2          0.598              1.968              4.109
 Vibration     3          0.603              1.952              3.533
 Vibration     4          0.624              1.884              2.481
 Vibration     5          0.626              1.876              2.407
 Vibration     6          0.652              1.794              1.874
 Vibration     7          0.689              1.683              1.446
 Vibration     8          0.705              1.636              1.313
 Vibration     9          0.716              1.607              1.239
 Vibration    10          0.762              1.481              0.981
 Vibration    11          0.793              1.401              0.853
 Vibration    12          0.860              1.238              0.645
 Vibration    13          0.917              1.116              0.522
 Vibration    14          0.937              1.074              0.484
 Vibration    15          0.967              1.014              0.436

 Optimization completed.
    -- Stationary point found.
 Normal termination of Gaussian 09 at Tue Aug 24 22:04:31 2021.

 -----------------------------------------------------------------
 #P Geom=AllCheck Guess=TCheck SCRF=Check CCSD(T,E4T,FrzG4)/GTBas1
 -----------------------------------------------------------------

 Structure from the checkpoint file:  "/public/home/users/caep010/.cache/gau_scr/Gau-85789.chk"
 ------
 VACRAT
 ------
 Charge =  0 Multiplicity = 1

 SCF Done:  E(RHF) =  -618.987822461     A.U. after   15 cycles
 E2 =    -0.1813951916D+01 EUMP2 =    -0.62080177437767D+03
 CCSD(T)
 CCSD(T)= -0.62091020203D+03
 Normal termination of Gaussian 09 at Tue Aug 24 23:03:33 2021.

 ---------------------------------------------------------
 #P Geom=AllCheck Guess=TCheck SCRF=Check MP4=FrzG4/GTBas2
 ---------------------------------------------------------

 Structure from the checkpoint file:  "/public/home/users/caep010/.cache/gau_scr/Gau-85789.chk"
 ------
 VACRAT
 ------
 Charge =  0 Multiplicity = 1

 SCF Done:  E(RHF) =  -619.005922751     A.U. after   15 cycles
 E2 =    -0.1837565661D+01 EUMP2 =    -0.62084348841168D+03
 Normal termination of Gaussian 09 at Tue Aug 24 23:25:38 2021.

 ---------------------------------------------------------
 #P Geom=AllCheck Guess=TCheck SCRF=Check MP4=FrzG4/GTBas3
 ---------------------------------------------------------

 Structure from the checkpoint file:  "/public/home/users/caep010/.cache/gau_scr/Gau-85789.chk"
 ------
 VACRAT
 ------
 Charge =  0 Multiplicity = 1

 SCF Done:  E(RHF) =  -619.055761121     A.U. after   13 cycles
 E2 =    -0.2171223166D+01 EUMP2 =    -0.62122698428713D+03
 Normal termination of Gaussian 09 at Wed Aug 25 02:31:48 2021.

 -----------------------------------------------------------
 #P Geom=AllCheck Guess=TCheck SCRF=Check MP2=Full/GTLargeXP
 -----------------------------------------------------------

 Structure from the checkpoint file:  "/public/home/users/caep010/.cache/gau_scr/Gau-85789.chk"
 ------
 VACRAT
 ------
 Charge =  0 Multiplicity = 1

 SCF Done:  E(RHF) =  -619.210296384     A.U. after   14 cycles
 E2 =    -0.2836895323D+01 EUMP2 =    -0.62204719170684D+03
 Normal termination of Gaussian 09 at Wed Aug 25 02:49:45 2021.
 SCF Done:  E(RHF) =  -619.260907714     A.U. after   10 cycles
 Normal termination of Gaussian 09 at Wed Aug 25 02:55:21 2021.

                         Standard orientation:
 ---------------------------------------------------------------------
 Center     Atomic      Atomic             Coordinates (Angstroms)
 Number     Number       Type             X           Y           Z
 ---------------------------------------------------------------------
      1          8           0        0.062330    2.336077   -0.000012
      2          7           0        0.570300    1.065435    0.000018
      3          6           0        1.910115    0.932993    0.000128
      4          6           0       -0.343728    0.028666   -0.000158
      5          7           0       -1.585162    0.523844   -0.000220
      6          7           0       -2.671697   -0.316882    0.000069
      7          8           0       -2.523831   -1.543347    0.000487
      8          8           0       -3.754610    0.248738   -0.000079
      9          6           0        0.237376   -1.265794   -0.000321
     10          6           0        1.604447   -1.414440   -0.000235
     11          1           0       -0.916454    2.124763    0.000087
     12          1           0       -0.433054   -2.108509   -0.000548
     13          6           0        2.488228   -0.313555    0.000028
     14          6           0        3.983686   -0.484756    0.000210
     15          1           0        2.017753   -2.418551   -0.000395
     16          1           0        2.453348    1.868366    0.000297
     17          1           0        4.318296   -1.041903   -0.881682
     18          1           0        4.318092   -1.041822    0.881923
     19          1           0        4.496071    0.480443    0.000174
 ---------------------------------------------------------------------

 SCF Done:  E(RHF) =  -619.270595065     A.U. after    7 cycles

 The electronic state is 1-A.
 Alpha  occ. eigenvalues --  -20.63991 -20.57279 -20.57067 -15.85865 -15.72740
 Alpha  occ. eigenvalues --  -15.59593 -11.38041 -11.33507 -11.29868 -11.28314
 Alpha  occ. eigenvalues --  -11.27171 -11.26178  -1.59369  -1.51021  -1.37547
 Alpha  occ. eigenvalues --   -1.29260  -1.24543  -1.13234  -1.09510  -1.01126
 Alpha  occ. eigenvalues --   -0.92615  -0.91037  -0.85579  -0.77562  -0.76639
 Alpha  occ. eigenvalues --   -0.74496  -0.72333  -0.70490  -0.69427  -0.68553
 Alpha  occ. eigenvalues --   -0.67187  -0.63904  -0.61103  -0.58910  -0.58119
 Alpha  occ. eigenvalues --   -0.55329  -0.54225  -0.52317  -0.48296  -0.47297
 Alpha  occ. eigenvalues --   -0.45104  -0.44073  -0.42115  -0.33449
 Alpha virt. eigenvalues --    0.01955   0.03187   0.03458   0.04062   0.04097
 Alpha virt. eigenvalues --    0.05726   0.05998   0.06258   0.06583   0.07377
 Alpha virt. eigenvalues --    0.08078   0.08159   0.08600   0.09063   0.09388

 Mulliken charges:
               1
     1  O   -0.496232
     2  N    0.027260
     3  C   -0.067958
     4  C    0.378202
     5  N   -0.523168
     6  N    0.557173
     7  O   -0.472442
     8  O   -0.426255
     9  C   -0.215544
    10  C   -0.081893
    11  H    0.452308
    12  H    0.285312
    13  C    0.199853
    14  C   -0.652034
    15  H    0.229588
    16  H    0.239638
    17  H    0.197050
    18  H    0.197085
    19  H    0.172055
 Sum of Mulliken charges =  -0.00000

 Dipole moment (field-independent basis, Debye):
    X=              8.9996    Y=             -0.2649    Z=             -0.0001  Tot=              9.0035
 Quadrupole moment (field-independent basis, Debye-Ang):
   XX=            -78.6720   YY=            -68.7827   ZZ=            -70.2478
   XY=             -4.0959   XZ=              0.0018   YZ=              0.0040

 Normal termination of Gaussian 09 at Wed Aug 25 03:29:12 2021.
