 Gaussian 09, Revision E.01,
 Gaussian 09:  ES64L-G09RevE.01 30-Nov-2015

 ----------------
 #P G4 OPT=calcfc
 ----------------

 ------
 VIKVUG
 ------
 Symbolic Z-matrix:
 Charge =  0 Multiplicity = 1

 SCF Done:  E(RB3LYP) =  -571.730131518     A.U. after   16 cycles
 SCF Done:  E(RB3LYP) =  -571.843548177     A.U. after   13 cycles
 SCF Done:  E(RB3LYP) =  -571.923991020     A.U. after   14 cycles
 SCF Done:  E(RB3LYP) =  -571.925485414     A.U. after   12 cycles
 SCF Done:  E(RB3LYP) =  -571.925747668     A.U. after   12 cycles
 SCF Done:  E(RB3LYP) =  -571.925813106     A.U. after   10 cycles
 SCF Done:  E(RB3LYP) =  -571.925820308     A.U. after   10 cycles
 SCF Done:  E(RB3LYP) =  -571.925822702     A.U. after   11 cycles
 SCF Done:  E(RB3LYP) =  -571.925822967     A.U. after   11 cycles
 SCF Done:  E(RB3LYP) =  -571.925823012     A.U. after   10 cycles
 SCF Done:  E(RB3LYP) =  -571.925823018     A.U. after    9 cycles
 Optimization completed.
    -- Stationary point found.
 Normal termination of Gaussian 09 at Tue Aug 24 23:07:32 2021.

 ----------------------------------------------------------
 #P Geom=AllCheck Guess=TCheck SCRF=Check B3LYP/GTBas3 Freq
 ----------------------------------------------------------

 Structure from the checkpoint file:  "/public/home/users/caep010/.cache/gau_scr/Gau-181308.chk"
 ------
 VIKVUG
 ------
 Charge =  0 Multiplicity = 1

 SCF Done:  E(RB3LYP) =  -571.925823018     A.U. after    1 cycles

  Exact polarizability: 104.787   5.438 112.703   0.000   0.001  91.060
 Approx polarizability: 161.554  17.481 199.086   0.001   0.006 129.409

                      1                      2                      3
                      A                      A                      A
 Frequencies --     19.9019                77.2695               129.8966
 Red. masses --      5.1128                 1.8971                 1.4494
 Frc consts  --      0.0012                 0.0067                 0.0144
 IR Inten    --      0.0720                 0.0889                 0.0430

                      4                      5                      6
                      A                      A                      A
 Frequencies --    137.1225               161.1192               163.1151
 Red. masses --      2.2063                 1.4088                 2.8284
 Frc consts  --      0.0244                 0.0215                 0.0443
 IR Inten    --      2.1562                 1.1283                 3.4062

                      7                      8                      9
                      A                      A                      A
 Frequencies --    188.2863               204.2090               228.9239
 Red. masses --      1.7871                 2.0630                 1.8496
 Frc consts  --      0.0373                 0.0507                 0.0571
 IR Inten    --      1.3154                 0.6095                 1.1323

                     10                     11                     12
                      A                      A                      A
 Frequencies --    246.3731               270.0444               310.6439
 Red. masses --      2.3171                 4.6652                 1.9824
 Frc consts  --      0.0829                 0.2004                 0.1127
 IR Inten    --      5.1471                 0.2717                 1.2348

                     13                     14                     15
                      A                      A                      A
 Frequencies --    350.1753               385.4242               389.4241
 Red. masses --      3.6089                 3.0288                 2.8076
 Frc consts  --      0.2607                 0.2651                 0.2509
 IR Inten    --      0.4805                 0.4558                 0.4842

                     16                     17                     18
                      A                      A                      A
 Frequencies --    441.9496               461.3298               476.0485
 Red. masses --      3.1138                 5.5983                 3.3194
 Frc consts  --      0.3583                 0.7020                 0.4432
 IR Inten    --      0.7790                 2.6424                 0.9056

                     19                     20                     21
                      A                      A                      A
 Frequencies --    524.6702               559.3347               593.5387
 Red. masses --      9.8323                 5.2768                 3.1511
 Frc consts  --      1.5947                 0.9727                 0.6540
 IR Inten    --      0.9596                 8.2456                 0.6715

                     22                     23                     24
                      A                      A                      A
 Frequencies --    639.6955               663.3336               827.8406
 Red. masses --      7.3249                 3.2681                10.5582
 Frc consts  --      1.7660                 0.8472                 4.2632
 IR Inten    --      0.0954                10.8243                15.6434

                     25                     26                     27
                      A                      A                      A
 Frequencies --    830.5877               921.8439               952.9555
 Red. masses --      8.7339                 2.7150                 3.9805
 Frc consts  --      3.5500                 1.3594                 2.1298
 IR Inten    --      1.8482                 1.8788                61.5975

                     28                     29                     30
                      A                      A                      A
 Frequencies --    962.0311               972.1045              1002.8346
 Red. masses --      1.3807                 1.4775                 1.3670
 Frc consts  --      0.7529                 0.8226                 0.8100
 IR Inten    --      0.0430                 7.3658                 1.1886

                     31                     32                     33
                      A                      A                      A
 Frequencies --   1027.7318              1049.3705              1128.2299
 Red. masses --      1.3049                 1.9386                 3.5790
 Frc consts  --      0.8121                 1.2577                 2.6842
 IR Inten    --      0.0125                 7.1150                 4.2275

                     34                     35                     36
                      A                      A                      A
 Frequencies --   1133.9292              1137.2193              1198.7200
 Red. masses --      1.7812                 1.7894                 2.0670
 Frc consts  --      1.3494                 1.3635                 1.7499
 IR Inten    --      0.1173                62.8839                16.5570

                     37                     38                     39
                      A                      A                      A
 Frequencies --   1226.3733              1267.4930              1375.9898
 Red. masses --      5.1621                 4.0607                 5.2845
 Frc consts  --      4.5743                 3.8436                 5.8950
 IR Inten    --      3.0452                 0.0033               100.7082

                     40                     41                     42
                      A                      A                      A
 Frequencies --   1395.7487              1403.4459              1415.6845
 Red. masses --      4.6342                 1.2645                 1.2342
 Frc consts  --      5.3191                 1.4674                 1.4574
 IR Inten    --     54.8292                 0.3720                10.0465

                     43                     44                     45
                      A                      A                      A
 Frequencies --   1421.2295              1441.4142              1471.8633
 Red. masses --      1.2154                 1.2681                 1.0452
 Frc consts  --      1.4465                 1.5524                 1.3341
 IR Inten    --      3.1309                17.6657                 0.1129

                     46                     47                     48
                      A                      A                      A
 Frequencies --   1477.8826              1483.7458              1490.9611
 Red. masses --      1.0451                 1.0528                 1.0457
 Frc consts  --      1.3449                 1.3656                 1.3696
 IR Inten    --      0.2109                15.1789                 4.3967

                     49                     50                     51
                      A                      A                      A
 Frequencies --   1500.6039              1502.3611              1515.1280
 Red. masses --      1.0490                 1.0487                 1.1165
 Frc consts  --      1.3917                 1.3946                 1.5101
 IR Inten    --      1.3921                 8.2504                19.2650

                     52                     53                     54
                      A                      A                      A
 Frequencies --   1525.9389              1643.3803              2353.8771
 Red. masses --      1.0786                12.4409                12.6806
 Frc consts  --      1.4797                19.7960                41.3958
 IR Inten    --     10.6058               228.2256                11.9680

                     55                     56                     57
                      A                      A                      A
 Frequencies --   3041.8171              3043.8230              3047.2020
 Red. masses --      1.0420                 1.0431                 1.0409
 Frc consts  --      5.6803                 5.6939                 5.6946
 IR Inten    --      2.5780                 9.5046                40.7571

                     58                     59                     60
                      A                      A                      A
 Frequencies --   3050.7338              3098.1870              3099.3636
 Red. masses --      1.0420                 1.1006                 1.1006
 Frc consts  --      5.7141                 6.2242                 6.2288
 IR Inten    --     24.2190                 3.2989                 7.2163

                     61                     62                     63
                      A                      A                      A
 Frequencies --   3106.8879              3108.0048              3156.6407
 Red. masses --      1.1004                 1.1007                 1.0982
 Frc consts  --      6.2582                 6.2642                 6.4475
 IR Inten    --     14.5800                24.2452                 7.4029

                     64                     65                     66
                      A                      A                      A
 Frequencies --   3170.3241              3196.8570              3207.8174
 Red. masses --      1.0950                 1.0943                 1.0918
 Frc consts  --      6.4846                 6.5894                 6.6193
 IR Inten    --      9.4998                 1.1662                 4.4482

 - Thermochemistry -
 -------------------
 Temperature   298.150 Kelvin.  Pressure   1.00000 Atm.
 Atom     1 has atomic number  6 and mass  12.00000

 Molecular mass:   168.08988 amu.
 Principal axes and moments of inertia in atomic units:
                           1         2         3
     Eigenvalues --  1681.958871830.146312313.41086
           X            0.99968  -0.02540   0.00001
           Y            0.02540   0.99968   0.00001
           Z           -0.00001  -0.00001   1.00000
 This molecule is an asymmetric top.
 Rotational symmetry number  1.
 Warning -- assumption of classical behavior for rotation
           may cause significant error
 Rotational temperatures (Kelvin)      0.05150     0.04733     0.03744
 Rotational constants (GHZ):           1.07300     0.98612     0.78012
 Zero-point vibrational energy     508460.8 (Joules/Mol)
                                  121.52505 (Kcal/Mol)
 Warning -- explicit consideration of  21 degrees of freedom as
           vibrations may cause significant error
 Vibrational temperatures:     28.63   111.17   186.89   197.29   231.81
          (Kelvin)            234.69   270.90   293.81   329.37   354.48
                              388.53   446.95   503.82   554.54   560.29
                              635.87   663.75   684.93   754.88   804.76
                              853.97   920.38   954.39  1191.08  1195.03
                             1326.33  1371.09  1384.15  1398.64  1442.85
                             1478.67  1509.81  1623.27  1631.47  1636.20
                             1724.69  1764.48  1823.64  1979.74  2008.17
                             2019.24  2036.85  2044.83  2073.87  2117.68
                             2126.34  2134.78  2145.16  2159.03  2161.56
                             2179.93  2195.48  2364.45  3386.70  4376.49
                             4379.38  4384.24  4389.32  4457.59  4459.29
                             4470.11  4471.72  4541.70  4561.38  4599.56
                             4615.33

 Zero-point correction=                           0.193662 (Hartree/Particle)
 Thermal correction to Energy=                    0.206980
 Thermal correction to Enthalpy=                  0.207924
 Thermal correction to Gibbs Free Energy=         0.154062
 Sum of electronic and zero-point Energies=           -571.732161
 Sum of electronic and thermal Energies=              -571.718843
 Sum of electronic and thermal Enthalpies=            -571.717899
 Sum of electronic and thermal Free Energies=         -571.771761

                     E (Thermal)             CV                S
                      KCal/Mol        Cal/Mol-Kelvin    Cal/Mol-Kelvin
 Total                  129.882             48.544            113.363
 Electronic               0.000              0.000              0.000
 Translational            0.889              2.981             41.266
 Rotational               0.889              2.981             30.344
 Vibrational            128.104             42.582             41.753
 Vibration     1          0.593              1.986              6.644
 Vibration     2          0.599              1.964              3.959
 Vibration     3          0.612              1.923              2.948
 Vibration     4          0.614              1.916              2.844
 Vibration     5          0.622              1.890              2.537
 Vibration     6          0.623              1.888              2.513
 Vibration     7          0.633              1.856              2.245
 Vibration     8          0.640              1.834              2.095
 Vibration     9          0.652              1.797              1.887
 Vibration    10          0.661              1.769              1.756
 Vibration    11          0.674              1.728              1.596
 Vibration    12          0.699              1.653              1.359
 Vibration    13          0.727              1.575              1.165
 Vibration    14          0.754              1.501              1.018
 Vibration    15          0.757              1.493              1.002
 Vibration    16          0.802              1.379              0.821
 Vibration    17          0.819              1.336              0.762
 Vibration    18          0.833              1.303              0.721
 Vibration    19          0.880              1.195              0.599
 Vibration    20          0.915              1.119              0.525
 Vibration    21          0.951              1.046              0.461

 Optimization completed.
    -- Stationary point found.
 Normal termination of Gaussian 09 at Tue Aug 24 23:10:55 2021.

 -----------------------------------------------------------------
 #P Geom=AllCheck Guess=TCheck SCRF=Check CCSD(T,E4T,FrzG4)/GTBas1
 -----------------------------------------------------------------

 Structure from the checkpoint file:  "/public/home/users/caep010/.cache/gau_scr/Gau-181308.chk"
 ------
 VIKVUG
 ------
 Charge =  0 Multiplicity = 1

 SCF Done:  E(RHF) =  -568.378812877     A.U. after   15 cycles
 E2 =    -0.1755704196D+01 EUMP2 =    -0.57013451707227D+03
 CCSD(T)
 CCSD(T)= -0.57026236978D+03
 38788\CCSD=-570.1885155\CCSD(T)=-570.2623698\RMSD=5.531e-09\PG=C01 [X(
 Normal termination of Gaussian 09 at Wed Aug 25 00:23:54 2021.

 ---------------------------------------------------------
 #P Geom=AllCheck Guess=TCheck SCRF=Check MP4=FrzG4/GTBas2
 ---------------------------------------------------------

 Structure from the checkpoint file:  "/public/home/users/caep010/.cache/gau_scr/Gau-181308.chk"
 ------
 VIKVUG
 ------
 Charge =  0 Multiplicity = 1

 SCF Done:  E(RHF) =  -568.390683076     A.U. after   15 cycles
 E2 =    -0.1777085376D+01 EUMP2 =    -0.57016776845261D+03
 Normal termination of Gaussian 09 at Wed Aug 25 00:52:28 2021.

 ---------------------------------------------------------
 #P Geom=AllCheck Guess=TCheck SCRF=Check MP4=FrzG4/GTBas3
 ---------------------------------------------------------

 Structure from the checkpoint file:  "/public/home/users/caep010/.cache/gau_scr/Gau-181308.chk"
 ------
 VIKVUG
 ------
 Charge =  0 Multiplicity = 1

 SCF Done:  E(RHF) =  -568.440379198     A.U. after   13 cycles
 E2 =    -0.2116928816D+01 EUMP2 =    -0.57055730801468D+03
 Normal termination of Gaussian 09 at Wed Aug 25 04:20:54 2021.

 -----------------------------------------------------------
 #P Geom=AllCheck Guess=TCheck SCRF=Check MP2=Full/GTLargeXP
 -----------------------------------------------------------

 Structure from the checkpoint file:  "/public/home/users/caep010/.cache/gau_scr/Gau-181308.chk"
 ------
 VIKVUG
 ------
 Charge =  0 Multiplicity = 1

 SCF Done:  E(RHF) =  -568.571623922     A.U. after   13 cycles
 E2 =    -0.2767660005D+01 EUMP2 =    -0.57133928392675D+03
 Normal termination of Gaussian 09 at Wed Aug 25 04:36:39 2021.
 SCF Done:  E(RHF) =  -568.615581311     A.U. after   10 cycles
 Normal termination of Gaussian 09 at Wed Aug 25 04:45:07 2021.

                         Standard orientation:
 ---------------------------------------------------------------------
 Center     Atomic      Atomic             Coordinates (Angstroms)
 Number     Number       Type             X           Y           Z
 ---------------------------------------------------------------------
      1          6           0        0.345808    0.308055   -0.000102
      2          6           0       -0.873233   -0.311093   -0.753653
      3          6           0       -1.749464    0.671957   -1.522952
      4          6           0        0.494042    1.740192   -0.000262
      5          6           0       -0.873087   -0.310900    0.753874
      6          6           0       -0.704166   -1.602073    1.542523
      7          7           0        0.520127    2.896208   -0.000410
      8          7           0        1.692886   -0.342591   -0.000098
      9          8           0        1.770122   -1.562559   -0.000426
     10          8           0        2.650377    0.413970    0.000239
     11          6           0       -0.704581   -1.602487   -1.542009
     12          1           0       -0.272653   -1.386365   -2.524308
     13          1           0       -1.821439    1.656164   -1.063663
     14          1           0       -0.273005   -1.385516    2.525052
     15          1           0       -0.077007   -2.342497    1.057284
     16          1           0       -1.697052   -2.034358    1.708251
     17          1           0       -2.759721    0.258266   -1.609270
     18          6           0       -1.749168    0.672330    1.523084
     19          1           0       -1.821663    1.656237    1.063290
     20          1           0       -1.697651   -2.034129   -1.708308
     21          1           0       -0.078244   -2.343235   -1.056276
     22          1           0       -1.357510    0.806762   -2.535664
     23          1           0       -1.356762    0.807789    2.535510
     24          1           0       -2.759291    0.258381    1.610135
 ---------------------------------------------------------------------

 SCF Done:  E(RHF) =  -568.624349438     A.U. after    8 cycles

 The electronic state is 1-A.
 Alpha  occ. eigenvalues --  -20.61356 -20.61000 -15.86762 -15.58284 -11.35318
 Alpha  occ. eigenvalues --  -11.30449 -11.30380 -11.29009 -11.24804 -11.24803
 Alpha  occ. eigenvalues --  -11.24432 -11.24431  -1.62073  -1.41441  -1.25126
 Alpha  occ. eigenvalues --   -1.21222  -1.07331  -1.05841  -0.98471  -0.95135
 Alpha  occ. eigenvalues --   -0.94600  -0.87324  -0.79278  -0.75794  -0.73762
 Alpha  occ. eigenvalues --   -0.72133  -0.68832  -0.65828  -0.62226  -0.62192
 Alpha  occ. eigenvalues --   -0.58909  -0.58250  -0.57142  -0.56674  -0.56630
 Alpha  occ. eigenvalues --   -0.55590  -0.54987  -0.52580  -0.51588  -0.50556
 Alpha  occ. eigenvalues --   -0.49981  -0.47257  -0.46433  -0.44127  -0.42466
 Alpha virt. eigenvalues --    0.02124   0.03061   0.03559   0.04611   0.04943
 Alpha virt. eigenvalues --    0.05939   0.06020   0.06163   0.06792   0.06914
 Alpha virt. eigenvalues --    0.08076   0.08181   0.08353   0.08442   0.08983

 Mulliken charges:
               1
     1  C    0.356362
     2  C    0.299630
     3  C   -0.673088
     4  C    0.138234
     5  C    0.299741
     6  C   -0.693782
     7  N   -0.426071
     8  N    0.471270
     9  O   -0.399171
    10  O   -0.432507
    11  C   -0.693685
    12  H    0.194635
    13  H    0.216047
    14  H    0.194619
    15  H    0.228461
    16  H    0.189481
    17  H    0.193421
    18  C   -0.673098
    19  H    0.216033
    20  H    0.189472
    21  H    0.228405
    22  H    0.191082
    23  H    0.191086
    24  H    0.193422
 Sum of Mulliken charges =  -0.00000

 Dipole moment (field-independent basis, Debye):
    X=             -5.3544    Y=             -3.0520    Z=              0.0008  Tot=              6.1631
 Quadrupole moment (field-independent basis, Debye-Ang):
   XX=            -78.9661   YY=            -85.8844   ZZ=            -67.1346
   XY=             -0.5692   XZ=              0.0001   YZ=              0.0006

 Normal termination of Gaussian 09 at Wed Aug 25 05:39:40 2021.
