 Gaussian 09, Revision E.01,
 Gaussian 09:  ES64L-G09RevE.01 30-Nov-2015

 ----------------
 #P G4 OPT=calcfc
 ----------------

 ------
 VEGHEU
 ------
 Symbolic Z-matrix:
 Charge =  0 Multiplicity = 1

 SCF Done:  E(RB3LYP) =  -824.928937343     A.U. after   16 cycles
 SCF Done:  E(RB3LYP) =  -824.979657704     A.U. after   13 cycles
 SCF Done:  E(RB3LYP) =  -824.988788220     A.U. after   14 cycles
 SCF Done:  E(RB3LYP) =  -824.989629311     A.U. after   13 cycles
 SCF Done:  E(RB3LYP) =  -824.989682322     A.U. after   12 cycles
 SCF Done:  E(RB3LYP) =  -824.989693614     A.U. after   10 cycles
 SCF Done:  E(RB3LYP) =  -824.989694583     A.U. after    8 cycles
 Optimization completed.
    -- Stationary point found.
 Normal termination of Gaussian 09 at Thu Aug 26 01:13:53 2021.

 ----------------------------------------------------------
 #P Geom=AllCheck Guess=TCheck SCRF=Check B3LYP/GTBas3 Freq
 ----------------------------------------------------------

 Structure from the checkpoint file:  "/public/home/users/caep010/.cache/gau_scr/Gau-140885.chk"
 ------
 VEGHEU
 ------
 Charge =  0 Multiplicity = 1

 SCF Done:  E(RB3LYP) =  -824.989694583     A.U. after    1 cycles

  Exact polarizability: 101.619   1.604 115.552   0.000  -0.000  58.880
 Approx polarizability: 203.467   0.241 156.454   0.000   0.000 104.684

                      1                      2                      3
                      A                      A                      B
 Frequencies --     41.9947                56.4015                67.0460
 Red. masses --     14.5707                 5.8317                15.5356
 Frc consts  --      0.0151                 0.0109                 0.0411
 IR Inten    --      0.1588                11.7398                 0.2292

                      4                      5                      6
                      A                      B                      B
 Frequencies --     70.9379               108.0242               175.7720
 Red. masses --     14.2745                 4.0906                 6.9104
 Frc consts  --      0.0423                 0.0281                 0.1258
 IR Inten    --      2.0934                 1.5253                 5.7541

                      7                      8                      9
                      A                      B                      A
 Frequencies --    203.5408               206.0386               264.0467
 Red. masses --      2.9002                 6.3363                10.8073
 Frc consts  --      0.0708                 0.1585                 0.4439
 IR Inten    --      1.3743                 0.8432                 1.0429

                     10                     11                     12
                      A                      B                      A
 Frequencies --    270.9663               361.3476               422.9007
 Red. masses --     11.5809                11.3113                11.5945
 Frc consts  --      0.5010                 0.8702                 1.2217
 IR Inten    --      0.0050                14.4823                 0.0023

                     13                     14                     15
                      A                      B                      B
 Frequencies --    459.9444               499.4200               546.1053
 Red. masses --      8.3324                 8.8329                 6.2903
 Frc consts  --      1.0386                 1.2980                 1.1053
 IR Inten    --      1.7537                 2.4891                 7.4676

                     16                     17                     18
                      A                      B                      A
 Frequencies --    566.5350               594.0763               634.5894
 Red. masses --      5.8346                 3.5759                 4.5858
 Frc consts  --      1.1033                 0.7436                 1.0881
 IR Inten    --      6.6976                11.9824                 0.9847

                     19                     20                     21
                      A                      B                      A
 Frequencies --    697.9539               758.9821               777.9051
 Red. masses --      5.3719                10.3248                11.4407
 Frc consts  --      1.5418                 3.5042                 4.0790
 IR Inten    --      0.3197                11.8418                18.6980

                     22                     23                     24
                      A                      B                      B
 Frequencies --    806.9043               811.7722               856.4139
 Red. masses --      9.2744                10.1414                 5.5868
 Frc consts  --      3.5578                 3.9375                 2.4142
 IR Inten    --      3.1517                52.4209                58.4872

                     25                     26                     27
                      A                      B                      A
 Frequencies --    924.4444               942.0716               988.3220
 Red. masses --      9.8885                 3.0808                 2.1456
 Frc consts  --      4.9790                 1.6110                 1.2348
 IR Inten    --     20.0092               230.3989                 0.4717

                     28                     29                     30
                      B                      B                      A
 Frequencies --   1053.4848              1146.1622              1178.4669
 Red. masses --      2.8856                 6.9067                 3.7258
 Frc consts  --      1.8869                 5.3458                 3.0486
 IR Inten    --    183.9461               446.7976                19.3119

                     31                     32                     33
                      B                      A                      A
 Frequencies --   1235.7876              1254.6936              1277.4222
 Red. masses --      2.2796                 1.1810                 5.0573
 Frc consts  --      2.0512                 1.0954                 4.8623
 IR Inten    --     13.9428                 8.0021                 0.0105

                     34                     35                     36
                      B                      B                      A
 Frequencies --   1279.5921              1315.2430              1316.1087
 Red. masses --      1.9303                 3.1282                 3.0339
 Frc consts  --      1.8622                 3.1883                 3.0963
 IR Inten    --    304.5145               322.8661                11.2295

                     37                     38                     39
                      A                      B                      B
 Frequencies --   1385.0551              1395.4631              1480.3695
 Red. masses --      2.6439                 2.1958                 1.1004
 Frc consts  --      2.9883                 2.5194                 1.4208
 IR Inten    --      0.1430                32.2229                22.4327

                     40                     41                     42
                      A                      A                      B
 Frequencies --   1494.3461              1707.4174              1707.8616
 Red. masses --      1.1329                14.3959                14.4101
 Frc consts  --      1.4905                24.7268                24.7640
 IR Inten    --      0.7843               147.7012               225.1524

                     43                     44                     45
                      B                      A                      A
 Frequencies --   1848.8468              1851.0242              3038.6383
 Red. masses --     12.7209                12.7279                 1.0714
 Frc consts  --     25.6194                25.6940                 5.8286
 IR Inten    --    631.6105                 2.8258                 6.3849

                     46                     47                     48
                      B                      B                      A
 Frequencies --   3039.6352              3163.4698              3163.7861
 Red. masses --      1.0719                 1.0908                 1.0912
 Frc consts  --      5.8351                 6.4317                 6.4352
 IR Inten    --      9.9159                 8.6378                 0.0955

 - Thermochemistry -
 -------------------
 Temperature   298.150 Kelvin.  Pressure   1.00000 Atm.
 Atom     1 has atomic number  7 and mass  14.00307

 Molecular mass:   204.01308 amu.
 Principal axes and moments of inertia in atomic units:
                           1         2         3
     Eigenvalues --  1268.045053904.609444876.04810
           X           -0.09771   0.99521   0.00000
           Y            0.99521   0.09771   0.00000
           Z           -0.00000  -0.00000   1.00000
 This molecule is an asymmetric top.
 Rotational symmetry number  2.
 Warning -- assumption of classical behavior for rotation
           may cause significant error
 Rotational temperatures (Kelvin)      0.06830     0.02218     0.01776
 Rotational constants (GHZ):           1.42325     0.46221     0.37012
 Zero-point vibrational energy     295760.7 (Joules/Mol)
                                   70.68851 (Kcal/Mol)
 Warning -- explicit consideration of  17 degrees of freedom as
           vibrations may cause significant error
 Vibrational temperatures:     60.42    81.15    96.46   102.06   155.42
          (Kelvin)            252.90   292.85   296.44   379.90   389.86
                              519.90   608.46   661.76   718.55   785.72
                              815.12   854.74   913.03  1004.20  1092.00
                             1119.23  1160.95  1167.96  1232.19  1330.07
                             1355.43  1421.97  1515.73  1649.07  1695.55
                             1778.02  1805.22  1837.92  1841.05  1892.34
                             1893.58  1992.78  2007.76  2129.92  2150.03
                             2456.59  2457.23  2660.07  2663.21  4371.92
                             4373.35  4551.52  4551.98

 Zero-point correction=                           0.112649 (Hartree/Particle)
 Thermal correction to Energy=                    0.124703
 Thermal correction to Enthalpy=                  0.125648
 Thermal correction to Gibbs Free Energy=         0.073065
 Sum of electronic and zero-point Energies=           -824.877045
 Sum of electronic and thermal Energies=              -824.864991
 Sum of electronic and thermal Enthalpies=            -824.864047
 Sum of electronic and thermal Free Energies=         -824.916629

                     E (Thermal)             CV                S
                      KCal/Mol        Cal/Mol-Kelvin    Cal/Mol-Kelvin
 Total                   78.253             42.224            110.669
 Electronic               0.000              0.000              0.000
 Translational            0.889              2.981             41.843
 Rotational               0.889              2.981             30.180
 Vibrational             76.475             36.263             38.645
 Vibration     1          0.595              1.980              5.163
 Vibration     2          0.596              1.975              4.579
 Vibration     3          0.598              1.970              4.238
 Vibration     4          0.598              1.968              4.127
 Vibration     5          0.606              1.943              3.304
 Vibration     6          0.628              1.872              2.373
 Vibration     7          0.639              1.835              2.101
 Vibration     8          0.641              1.831              2.078
 Vibration     9          0.671              1.739              1.635
 Vibration    10          0.675              1.727              1.590
 Vibration    11          0.736              1.552              1.116
 Vibration    12          0.785              1.420              0.882
 Vibration    13          0.818              1.339              0.766
 Vibration    14          0.855              1.251              0.660
 Vibration    15          0.901              1.148              0.552
 Vibration    16          0.922              1.104              0.511
 Vibration    17          0.952              1.044              0.460

 Normal termination of Gaussian 09 at Thu Aug 26 01:15:50 2021.

 -----------------------------------------------------------------
 #P Geom=AllCheck Guess=TCheck SCRF=Check CCSD(T,E4T,FrzG4)/GTBas1
 -----------------------------------------------------------------

 Structure from the checkpoint file:  "/public/home/users/caep010/.cache/gau_scr/Gau-140885.chk"
 ------
 VEGHEU
 ------
 Charge =  0 Multiplicity = 1

 SCF Done:  E(RHF) =  -820.453110790     A.U. after   16 cycles
 E2 =    -0.2274025165D+01 EUMP2 =    -0.82272713595595D+03
 CCSD(T)
 CCSD(T)= -0.82282406824D+03
 3\MP4SDQ=-822.7420524\CCSD=-822.7278025\CCSD(T)=-822.8240682\RMSD=3.75
 Normal termination of Gaussian 09 at Thu Aug 26 02:35:28 2021.

 ---------------------------------------------------------
 #P Geom=AllCheck Guess=TCheck SCRF=Check MP4=FrzG4/GTBas2
 ---------------------------------------------------------

 Structure from the checkpoint file:  "/public/home/users/caep010/.cache/gau_scr/Gau-140885.chk"
 ------
 VEGHEU
 ------
 Charge =  0 Multiplicity = 1

 SCF Done:  E(RHF) =  -820.474929185     A.U. after   14 cycles
 E2 =    -0.2305447689D+01 EUMP2 =    -0.82278037687423D+03
 Normal termination of Gaussian 09 at Thu Aug 26 03:46:30 2021.

 ---------------------------------------------------------
 #P Geom=AllCheck Guess=TCheck SCRF=Check MP4=FrzG4/GTBas3
 ---------------------------------------------------------

 Structure from the checkpoint file:  "/public/home/users/caep010/.cache/gau_scr/Gau-140885.chk"
 ------
 VEGHEU
 ------
 Charge =  0 Multiplicity = 1

 SCF Done:  E(RHF) =  -820.537537890     A.U. after   13 cycles
 E2 =    -0.2719916856D+01 EUMP2 =    -0.82325745474668D+03
 Normal termination of Gaussian 09 at Thu Aug 26 11:47:00 2021.

 -----------------------------------------------------------
 #P Geom=AllCheck Guess=TCheck SCRF=Check MP2=Full/GTLargeXP
 -----------------------------------------------------------

 Structure from the checkpoint file:  "/public/home/users/caep010/.cache/gau_scr/Gau-140885.chk"
 ------
 VEGHEU
 ------
 Charge =  0 Multiplicity = 1

 SCF Done:  E(RHF) =  -820.752702531     A.U. after   14 cycles
 E2 =    -0.3522557490D+01 EUMP2 =    -0.82427526002142D+03
 Normal termination of Gaussian 09 at Thu Aug 26 11:54:08 2021.
 SCF Done:  E(RHF) =  -820.818625171     A.U. after    9 cycles
 Normal termination of Gaussian 09 at Thu Aug 26 11:57:45 2021.

                         Standard orientation:
 ---------------------------------------------------------------------
 Center     Atomic      Atomic             Coordinates (Angstroms)
 Number     Number       Type             X           Y           Z
 ---------------------------------------------------------------------
      1          7           0       -0.038222    1.356850    0.002130
      2          7           0        0.038222   -1.356850    0.002130
      3          6           0       -1.187666   -0.743665   -0.502489
      4          6           0        1.187666    0.743665   -0.502489
      5          1           0       -2.040367   -1.208732   -0.012361
      6          1           0        2.040367    1.208732   -0.012361
      7          6           0       -1.286759    0.755274   -0.213932
      8          6           0        1.286759   -0.755274   -0.213932
      9          7           0        0.038222    2.772701    0.259442
     10          7           0       -0.038222   -2.772701    0.259442
     11          8           0        1.040068    3.316486   -0.166919
     12          8           0       -1.040068   -3.316486   -0.166919
     13          1           0       -1.309781   -0.901420   -1.581659
     14          1           0        1.309781    0.901420   -1.581659
     15          8           0       -2.348327    1.310832   -0.212229
     16          8           0        2.348327   -1.310832   -0.212229
     17          8           0       -0.867413    3.258121    0.886842
     18          8           0        0.867413   -3.258121    0.886842
 ---------------------------------------------------------------------

 SCF Done:  E(RHF) =  -820.831696593     A.U. after    8 cycles

 The electronic state is 1-A.
 Alpha  occ. eigenvalues --  -20.64774 -20.64774 -20.64275 -20.64275 -20.59741
 Alpha  occ. eigenvalues --  -20.59741 -15.93130 -15.93130 -15.71085 -15.71085
 Alpha  occ. eigenvalues --  -11.43476 -11.43476 -11.35327 -11.35327  -1.67310
 Alpha  occ. eigenvalues --   -1.67270  -1.47143  -1.46701  -1.46062  -1.45705
 Alpha  occ. eigenvalues --   -1.35391  -1.32326  -1.09522  -1.08549  -0.99079
 Alpha  occ. eigenvalues --   -0.97644  -0.87319  -0.83851  -0.81427  -0.81007
 Alpha  occ. eigenvalues --   -0.80567  -0.78899  -0.76686  -0.75037  -0.74038
 Alpha  occ. eigenvalues --   -0.72349  -0.68677  -0.68424  -0.66759  -0.66524
 Alpha  occ. eigenvalues --   -0.62627  -0.58487  -0.57185  -0.55695  -0.54822
 Alpha  occ. eigenvalues --   -0.54066  -0.51219  -0.50276  -0.50083  -0.49249
 Alpha  occ. eigenvalues --   -0.47620  -0.46701
 Alpha virt. eigenvalues --    0.02444   0.03577   0.03662   0.04279   0.04742
 Alpha virt. eigenvalues --    0.04867   0.05790   0.06069   0.06494   0.06784
 Alpha virt. eigenvalues --    0.07128   0.08243   0.08644   0.09233   0.09535

 Mulliken charges:
               1
     1  N   -0.031852
     2  N   -0.031852
     3  C   -0.245878
     4  C   -0.245878
     5  H    0.279152
     6  H    0.279152
     7  C    0.444038
     8  C    0.444038
     9  N    0.549301
    10  N    0.549301
    11  O   -0.403968
    12  O   -0.403968
    13  H    0.224913
    14  H    0.224913
    15  O   -0.485601
    16  O   -0.485601
    17  O   -0.330106
    18  O   -0.330106
 Sum of Mulliken charges =  -0.00000

 Dipole moment (field-independent basis, Debye):
    X=              0.0000    Y=              0.0000    Z=             -2.1250  Tot=              2.1250
 Quadrupole moment (field-independent basis, Debye-Ang):
   XX=            -90.8675   YY=           -104.9416   ZZ=            -73.9977
   XY=              9.3876   XZ=              0.0000   YZ=              0.0000

 Normal termination of Gaussian 09 at Thu Aug 26 12:23:14 2021.
