 Gaussian 09, Revision E.01,
 Gaussian 09:  ES64L-G09RevE.01 30-Nov-2015

 ----------------
 #P G4 OPT=calcfc
 ----------------

 ------
 VIKWAN
 ------
 Symbolic Z-matrix:
 Charge =  0 Multiplicity = 1

 SCF Done:  E(RB3LYP) =  -648.209597092     A.U. after   16 cycles
 SCF Done:  E(RB3LYP) =  -648.321076609     A.U. after   15 cycles
 SCF Done:  E(RB3LYP) =  -648.387451492     A.U. after   16 cycles
 SCF Done:  E(RB3LYP) =  -648.376015990     A.U. after   17 cycles
 SCF Done:  E(RB3LYP) =  -648.396420042     A.U. after   13 cycles
 SCF Done:  E(RB3LYP) =  -648.393965444     A.U. after   15 cycles
 SCF Done:  E(RB3LYP) =  -648.397292513     A.U. after   12 cycles
 SCF Done:  E(RB3LYP) =  -648.398609582     A.U. after   13 cycles
 SCF Done:  E(RB3LYP) =  -648.393213235     A.U. after   14 cycles
 SCF Done:  E(RB3LYP) =  -648.398977828     A.U. after   10 cycles
 SCF Done:  E(RB3LYP) =  -648.400392400     A.U. after   11 cycles
 SCF Done:  E(RB3LYP) =  -648.400392465     A.U. after    8 cycles
 SCF Done:  E(RB3LYP) =  -648.400392745     A.U. after    8 cycles
 Optimization completed.
    -- Stationary point found.
 Normal termination of Gaussian 09 at Wed Aug 25 07:28:22 2021.

 ----------------------------------------------------------
 #P Geom=AllCheck Guess=TCheck SCRF=Check B3LYP/GTBas3 Freq
 ----------------------------------------------------------

 Structure from the checkpoint file:  "/public/home/users/caep010/.cache/gau_scr/Gau-39901.chk"
 ------
 VIKWAN
 ------
 Charge =  0 Multiplicity = 1

 SCF Done:  E(RB3LYP) =  -648.400392745     A.U. after    1 cycles

  Exact polarizability: 114.455  -0.714 105.644  -4.469   0.245 104.549
 Approx polarizability: 167.412  -8.876 162.932 -12.227   2.144 177.260

                      1                      2                      3
                      A                      A                      A
 Frequencies --     37.1679                74.0835               104.9611
 Red. masses --      6.2796                 6.3020                 2.7645
 Frc consts  --      0.0051                 0.0204                 0.0179
 IR Inten    --      5.6944                 0.1138                 0.3068

                      4                      5                      6
                      A                      A                      A
 Frequencies --    134.5480               154.6228               168.6844
 Red. masses --      1.6001                 1.2810                 2.0488
 Frc consts  --      0.0171                 0.0180                 0.0343
 IR Inten    --      0.0437                 0.0835                 0.6689

                      7                      8                      9
                      A                      A                      A
 Frequencies --    188.3342               209.8913               226.7594
 Red. masses --      1.4293                 2.6202                 1.9930
 Frc consts  --      0.0299                 0.0680                 0.0604
 IR Inten    --      1.4278                 0.4213                 1.7605

                     10                     11                     12
                      A                      A                      A
 Frequencies --    243.7701               249.0148               269.8477
 Red. masses --      2.3697                 3.1335                 1.9806
 Frc consts  --      0.0830                 0.1145                 0.0850
 IR Inten    --      1.2792                10.4824                 1.6279

                     13                     14                     15
                      A                      A                      A
 Frequencies --    329.8133               352.2605               358.9413
 Red. masses --      2.0282                 2.9649                 3.4933
 Frc consts  --      0.1300                 0.2168                 0.2652
 IR Inten    --      2.6084                 3.6952                 2.8428

                     16                     17                     18
                      A                      A                      A
 Frequencies --    389.5870               393.1576               411.6640
 Red. masses --      2.6927                 3.4644                 1.4500
 Frc consts  --      0.2408                 0.3155                 0.1448
 IR Inten    --      0.7087                36.5764               135.2016

                     19                     20                     21
                      A                      A                      A
 Frequencies --    443.0174               462.8538               474.7766
 Red. masses --      2.9240                 3.0124                 2.8590
 Frc consts  --      0.3381                 0.3802                 0.3797
 IR Inten    --      0.4059                 3.9899                14.8291

                     22                     23                     24
                      A                      A                      A
 Frequencies --    567.2927               605.3026               644.2604
 Red. masses --      1.6004                 1.9358                 3.3002
 Frc consts  --      0.3034                 0.4179                 0.8071
 IR Inten    --      4.5506                 3.5267                15.7356

                     25                     26                     27
                      A                      A                      A
 Frequencies --    664.5779               722.0927               727.7018
 Red. masses --      3.1356                 3.6435                 8.6327
 Frc consts  --      0.8159                 1.1193                 2.6934
 IR Inten    --      0.9077                 7.9633                 5.9650

                     28                     29                     30
                      A                      A                      A
 Frequencies --    822.6433               854.7618               962.7318
 Red. masses --      8.7974                 5.8687                 2.8745
 Frc consts  --      3.5078                 2.5263                 1.5697
 IR Inten    --     26.2868                 1.0560                 8.6166

                     31                     32                     33
                      A                      A                      A
 Frequencies --    965.3828               968.8597               977.7022
 Red. masses --      1.4023                 1.8304                 2.3016
 Frc consts  --      0.7700                 1.0123                 1.2963
 IR Inten    --      0.7266                 3.7274                 5.6361

                     34                     35                     36
                      A                      A                      A
 Frequencies --    984.7362              1027.1779              1040.9332
 Red. masses --      1.6573                 1.2944                 2.1188
 Frc consts  --      0.9469                 0.8047                 1.3527
 IR Inten    --      7.1776                 0.1970                 0.6074

                     37                     38                     39
                      A                      A                      A
 Frequencies --   1089.2400              1125.2511              1140.5631
 Red. masses --      2.2105                 1.9102                 1.7869
 Frc consts  --      1.5452                 1.4250                 1.3696
 IR Inten    --      4.7499                 3.3440                 3.4518

                     40                     41                     42
                      A                      A                      A
 Frequencies --   1147.8203              1207.9443              1222.5734
 Red. masses --      1.8490                 4.2799                 2.4232
 Frc consts  --      1.4352                 3.6794                 2.1340
 IR Inten    --     33.2453                 0.5264                 6.7857

                     43                     44                     45
                      A                      A                      A
 Frequencies --   1262.5030              1330.6655              1392.7384
 Red. masses --      4.0814                 3.6827                 3.6924
 Frc consts  --      3.8329                 3.8420                 4.2199
 IR Inten    --      0.7473               111.4144                33.0160

                     46                     47                     48
                      A                      A                      A
 Frequencies --   1403.1961              1406.0323              1416.8100
 Red. masses --      4.8532                 1.3795                 1.2587
 Frc consts  --      5.6301                 1.6068                 1.4887
 IR Inten    --    148.0098                18.3455                 3.4320

                     49                     50                     51
                      A                      A                      A
 Frequencies --   1421.4684              1441.2804              1471.3607
 Red. masses --      1.2259                 1.2339                 1.0488
 Frc consts  --      1.4594                 1.5102                 1.3378
 IR Inten    --      5.6354                12.9502                 2.7915

                     52                     53                     54
                      A                      A                      A
 Frequencies --   1475.5302              1486.1413              1494.8850
 Red. masses --      1.0500                 1.0504                 1.0504
 Frc consts  --      1.3469                 1.3669                 1.3830
 IR Inten    --      1.0731                 6.0327                 8.0006

                     55                     56                     57
                      A                      A                      A
 Frequencies --   1499.3170              1502.2379              1517.0520
 Red. masses --      1.0518                 1.0474                 1.1111
 Frc consts  --      1.3930                 1.3926                 1.5066
 IR Inten    --      5.4406                 6.2520                12.5486

                     58                     59                     60
                      A                      A                      A
 Frequencies --   1527.0052              1597.4342              1644.9028
 Red. masses --      1.0789                 2.1600                 2.3477
 Frc consts  --      1.4822                 3.2474                 3.7426
 IR Inten    --      9.8004               285.3121                92.4013

                     61                     62                     63
                      A                      A                      A
 Frequencies --   1780.4533              3036.4827              3039.0157
 Red. masses --      9.1901                 1.0415                 1.0439
 Frc consts  --     17.1645                 5.6578                 5.6803
 IR Inten    --    239.1627                16.8409                18.9872

                     64                     65                     66
                      A                      A                      A
 Frequencies --   3043.3748              3049.1758              3092.0826
 Red. masses --      1.0408                 1.0429                 1.1006
 Frc consts  --      5.6798                 5.7127                 6.2001
 IR Inten    --     32.4407                35.6019                 9.6806

                     67                     68                     69
                      A                      A                      A
 Frequencies --   3094.3635              3104.1151              3111.0162
 Red. masses --      1.0996                 1.0993                 1.0988
 Frc consts  --      6.2033                 6.2409                 6.2656
 IR Inten    --     15.9951                16.6522                19.0929

                     70                     71                     72
                      A                      A                      A
 Frequencies --   3147.3221              3165.7970              3166.1217
 Red. masses --      1.0982                 1.0953                 1.0947
 Frc consts  --      6.4092                 6.4675                 6.4652
 IR Inten    --     15.1492                 3.7166                18.6107

                     73                     74                     75
                      A                      A                      A
 Frequencies --   3206.6418              3584.3827              3715.9322
 Red. masses --      1.0925                 1.0448                 1.1048
 Frc consts  --      6.6186                 7.9089                 8.9882
 IR Inten    --      2.6135                44.4424                76.7257

 - Thermochemistry -
 -------------------
 Temperature   298.150 Kelvin.  Pressure   1.00000 Atm.
 Atom     1 has atomic number  6 and mass  12.00000

 Molecular mass:   186.10044 amu.
 Principal axes and moments of inertia in atomic units:
                           1         2         3
     Eigenvalues --  1973.099132103.954432580.09851
           X            0.98711   0.15847  -0.02255
           Y           -0.15866   0.98731  -0.00710
           Z            0.02114   0.01058   0.99972
 This molecule is an asymmetric top.
 Rotational symmetry number  1.
 Warning -- assumption of classical behavior for rotation
           may cause significant error
 Rotational temperatures (Kelvin)      0.04390     0.04117     0.03357
 Rotational constants (GHZ):           0.91467     0.85779     0.69949
 Zero-point vibrational energy     584819.2 (Joules/Mol)
                                  139.77515 (Kcal/Mol)
 Warning -- explicit consideration of  23 degrees of freedom as
           vibrations may cause significant error
 Vibrational temperatures:     53.48   106.59   151.02   193.58   222.47
          (Kelvin)            242.70   270.97   301.99   326.26   350.73
                              358.28   388.25   474.53   506.82   516.44
                              560.53   565.67   592.29   637.40   665.94
                              683.10   816.21   870.89   926.95   956.18
                             1038.93  1047.00  1183.60  1229.81  1385.15
                             1388.97  1393.97  1406.69  1416.81  1477.88
                             1497.67  1567.17  1618.98  1641.01  1651.46
                             1737.96  1759.01  1816.46  1914.53  2003.84
                             2018.88  2022.96  2038.47  2045.17  2073.68
                             2116.96  2122.96  2138.22  2150.80  2157.18
                             2161.38  2182.70  2197.02  2298.35  2366.65
                             2561.67  4368.82  4372.46  4378.73  4387.08
                             4448.81  4452.09  4466.12  4476.05  4528.29
                             4554.87  4555.34  4613.64  5157.12  5346.39

 Zero-point correction=                           0.222746 (Hartree/Particle)
 Thermal correction to Energy=                    0.237198
 Thermal correction to Enthalpy=                  0.238142
 Thermal correction to Gibbs Free Energy=         0.182560
 Sum of electronic and zero-point Energies=           -648.177647
 Sum of electronic and thermal Energies=              -648.163195
 Sum of electronic and thermal Enthalpies=            -648.162251
 Sum of electronic and thermal Free Energies=         -648.217833

                     E (Thermal)             CV                S
                      KCal/Mol        Cal/Mol-Kelvin    Cal/Mol-Kelvin
 Total                  148.844             53.983            116.982
 Electronic               0.000              0.000              0.000
 Translational            0.889              2.981             41.569
 Rotational               0.889              2.981             30.750
 Vibrational            147.066             48.021             44.663
 Vibration     1          0.594              1.982              5.405
 Vibration     2          0.599              1.966              4.042
 Vibration     3          0.605              1.945              3.360
 Vibration     4          0.613              1.919              2.880
 Vibration     5          0.620              1.898              2.615
 Vibration     6          0.625              1.881              2.450
 Vibration     7          0.633              1.856              2.244
 Vibration     8          0.642              1.826              2.045
 Vibration     9          0.650              1.800              1.904
 Vibration    10          0.659              1.773              1.775
 Vibration    11          0.662              1.764              1.738
 Vibration    12          0.674              1.729              1.597
 Vibration    13          0.713              1.616              1.261
 Vibration    14          0.729              1.571              1.156
 Vibration    15          0.734              1.557              1.127
 Vibration    16          0.758              1.492              1.002
 Vibration    17          0.760              1.485              0.988
 Vibration    18          0.776              1.445              0.921
 Vibration    19          0.803              1.376              0.817
 Vibration    20          0.820              1.332              0.758
 Vibration    21          0.831              1.306              0.724
 Vibration    22          0.923              1.102              0.509
 Vibration    23          0.964              1.021              0.441

 Optimization completed.
    -- Stationary point found.
 Normal termination of Gaussian 09 at Wed Aug 25 07:32:59 2021.

 -----------------------------------------------------------------
 #P Geom=AllCheck Guess=TCheck SCRF=Check CCSD(T,E4T,FrzG4)/GTBas1
 -----------------------------------------------------------------

 Structure from the checkpoint file:  "/public/home/users/caep010/.cache/gau_scr/Gau-39901.chk"
 ------
 VIKWAN
 ------
 Charge =  0 Multiplicity = 1

 SCF Done:  E(RHF) =  -644.434592137     A.U. after   15 cycles
 E2 =    -0.1940499318D+01 EUMP2 =    -0.64637509145429D+03
 CCSD(T)
 CCSD(T)= -0.64651577576D+03
 9\CCSD=-646.4391482\CCSD(T)=-646.5157758\RMSD=5.199e-09\PG=C01 [X(C8H1
 Normal termination of Gaussian 09 at Wed Aug 25 09:51:35 2021.

 ---------------------------------------------------------
 #P Geom=AllCheck Guess=TCheck SCRF=Check MP4=FrzG4/GTBas2
 ---------------------------------------------------------

 Structure from the checkpoint file:  "/public/home/users/caep010/.cache/gau_scr/Gau-39901.chk"
 ------
 VIKWAN
 ------
 Charge =  0 Multiplicity = 1

 SCF Done:  E(RHF) =  -644.449267648     A.U. after   16 cycles
 E2 =    -0.1968900140D+01 EUMP2 =    -0.64641816778816D+03
 Normal termination of Gaussian 09 at Wed Aug 25 10:57:45 2021.

 ---------------------------------------------------------
 #P Geom=AllCheck Guess=TCheck SCRF=Check MP4=FrzG4/GTBas3
 ---------------------------------------------------------

 Structure from the checkpoint file:  "/public/home/users/caep010/.cache/gau_scr/Gau-39901.chk"
 ------
 VIKWAN
 ------
 Charge =  0 Multiplicity = 1

 SCF Done:  E(RHF) =  -644.508483181     A.U. after   13 cycles
 E2 =    -0.2358630123D+01 EUMP2 =    -0.64686711330369D+03
 Normal termination of Gaussian 09 at Wed Aug 25 21:07:15 2021.

 -----------------------------------------------------------
 #P Geom=AllCheck Guess=TCheck SCRF=Check MP2=Full/GTLargeXP
 -----------------------------------------------------------

 Structure from the checkpoint file:  "/public/home/users/caep010/.cache/gau_scr/Gau-39901.chk"
 ------
 VIKWAN
 ------
 Charge =  0 Multiplicity = 1

 SCF Done:  E(RHF) =  -644.663562459     A.U. after   14 cycles
 E2 =    -0.3078848002D+01 EUMP2 =    -0.64774241046135D+03
 Normal termination of Gaussian 09 at Wed Aug 25 21:27:48 2021.
 SCF Done:  E(RHF) =  -644.713412677     A.U. after    9 cycles
 Normal termination of Gaussian 09 at Wed Aug 25 21:37:38 2021.

                         Standard orientation:
 ---------------------------------------------------------------------
 Center     Atomic      Atomic             Coordinates (Angstroms)
 Number     Number       Type             X           Y           Z
 ---------------------------------------------------------------------
      1          6           0       -0.243842   -0.028983   -0.098685
      2          6           0        0.921032   -0.049498    0.904325
      3          6           0        1.200846    0.010360   -0.595949
      4          6           0        1.802636   -1.182833   -1.329761
      5          6           0       -1.172252   -1.235395   -0.223218
      6          6           0        1.735060    1.306824   -1.198927
      7          6           0        1.165059    1.166813    1.787167
      8          6           0        1.172694   -1.339604    1.673193
      9          7           0       -1.040148    1.238333   -0.208207
     10          8           0       -1.625763    1.626350    0.803265
     11          7           0       -2.470233   -1.011957    0.116704
     12          8           0       -1.111552    1.778599   -1.297669
     13          8           0       -0.776065   -2.325927   -0.589490
     14          1           0        2.826043    1.314153   -1.101766
     15          1           0        1.352203    2.215958   -0.739548
     16          1           0        1.490259    1.353329   -2.263345
     17          1           0        1.456277   -2.143715   -0.965208
     18          1           0        1.551797   -1.128314   -2.394022
     19          1           0        2.894164   -1.131826   -1.245087
     20          1           0        0.512671    1.132161    2.664570
     21          1           0        0.992721    2.122442    1.294261
     22          1           0        2.202682    1.152066    2.138432
     23          1           0        0.891525   -2.232220    1.117676
     24          1           0        0.607639   -1.333149    2.611696
     25          1           0        2.235272   -1.410247    1.929901
     26          1           0       -2.751113   -0.192124    0.630092
     27          1           0       -3.069826   -1.821427    0.125149
 ---------------------------------------------------------------------

 SCF Done:  E(RHF) =  -644.723713870     A.U. after    8 cycles

 The electronic state is 1-A.
 Alpha  occ. eigenvalues --  -20.61782 -20.60770 -20.53574 -15.85719 -15.59424
 Alpha  occ. eigenvalues --  -11.38288 -11.31958 -11.27890 -11.27561 -11.23471
 Alpha  occ. eigenvalues --  -11.23035 -11.22960 -11.21984  -1.61540  -1.40952
 Alpha  occ. eigenvalues --   -1.40515  -1.23183  -1.20854  -1.05322  -1.03822
 Alpha  occ. eigenvalues --   -0.96762  -0.93265  -0.92847  -0.87782  -0.80691
 Alpha  occ. eigenvalues --   -0.77160  -0.74803  -0.72832  -0.71848  -0.69880
 Alpha  occ. eigenvalues --   -0.65950  -0.63908  -0.62683  -0.62108  -0.60021
 Alpha  occ. eigenvalues --   -0.58150  -0.56951  -0.56149  -0.55062  -0.54544
 Alpha  occ. eigenvalues --   -0.53599  -0.53063  -0.51280  -0.50687  -0.48060
 Alpha  occ. eigenvalues --   -0.46350  -0.44775  -0.43111  -0.43026  -0.41274
 Alpha virt. eigenvalues --    0.02713   0.03474   0.03778   0.04187   0.05305
 Alpha virt. eigenvalues --    0.05851   0.06019   0.06208   0.06807   0.07195
 Alpha virt. eigenvalues --    0.08021   0.08212   0.08491   0.08583   0.08968

 Mulliken charges:
               1
     1  C    0.239721
     2  C    0.308949
     3  C    0.276948
     4  C   -0.681264
     5  C    0.571764
     6  C   -0.676888
     7  C   -0.660470
     8  C   -0.720108
     9  N    0.513874
    10  O   -0.453922
    11  N   -0.778000
    12  O   -0.408326
    13  O   -0.630874
    14  H    0.192998
    15  H    0.196854
    16  H    0.198077
    17  H    0.229232
    18  H    0.183032
    19  H    0.176900
    20  H    0.193504
    21  H    0.201311
    22  H    0.193021
    23  H    0.234377
    24  H    0.182995
    25  H    0.190119
    26  H    0.362552
    27  H    0.363623
 Sum of Mulliken charges =  -0.00000

 Dipole moment (field-independent basis, Debye):
    X=              1.4239    Y=             -0.3369    Z=              1.9997  Tot=              2.4779
 Quadrupole moment (field-independent basis, Debye-Ang):
   XX=            -70.9390   YY=            -89.6626   ZZ=            -79.9436
   XY=              6.4760   XZ=             -2.4715   YZ=             -2.0596

 Normal termination of Gaussian 09 at Wed Aug 25 22:46:23 2021.
