 Gaussian 09, Revision E.01,
 Gaussian 09:  ES64L-G09RevE.01 30-Nov-2015

 ----------------
 #P G4 OPT=calcfc
 ----------------

 ------
 VUYKUV
 ------
 Symbolic Z-matrix:
 Charge =  0 Multiplicity = 1

 SCF Done:  E(RB3LYP) =  -663.960425117     A.U. after   16 cycles
 SCF Done:  E(RB3LYP) =  -664.105190945     A.U. after   13 cycles
 SCF Done:  E(RB3LYP) =  -664.222679752     A.U. after   14 cycles
 SCF Done:  E(RB3LYP) =  -664.228156440     A.U. after   14 cycles
 SCF Done:  E(RB3LYP) =  -664.228111201     A.U. after   15 cycles
 SCF Done:  E(RB3LYP) =  -664.229735751     A.U. after   11 cycles
 SCF Done:  E(RB3LYP) =  -664.229349508     A.U. after   12 cycles
 SCF Done:  E(RB3LYP) =  -664.229789158     A.U. after    9 cycles
 SCF Done:  E(RB3LYP) =  -664.230311277     A.U. after   13 cycles
 SCF Done:  E(RB3LYP) =  -664.230518191     A.U. after   13 cycles
 SCF Done:  E(RB3LYP) =  -664.231425519     A.U. after    6 cycles
 SCF Done:  E(RB3LYP) =  -664.231425562     A.U. after    7 cycles
 SCF Done:  E(RB3LYP) =  -664.231425606     A.U. after    7 cycles
 Optimization completed.
    -- Stationary point found.
 Normal termination of Gaussian 09 at Thu Aug 26 18:02:29 2021.

 ----------------------------------------------------------
 #P Geom=AllCheck Guess=TCheck SCRF=Check B3LYP/GTBas3 Freq
 ----------------------------------------------------------

 Structure from the checkpoint file:  "/public/home/users/caep010/.cache/gau_scr/Gau-90233.chk"
 ------
 VUYKUV
 ------
 Charge =  0 Multiplicity = 1

 SCF Done:  E(RB3LYP) =  -664.231425606     A.U. after    1 cycles

  Exact polarizability: 255.055   2.939 121.008   2.041   5.678  68.763
 Approx polarizability: 354.841   7.498 226.864   6.459  17.638 111.022

                      1                      2                      3
                      A                      A                      A
 Frequencies --     45.1306                53.3679                69.4444
 Red. masses --      3.7184                 4.2963                 1.8033
 Frc consts  --      0.0045                 0.0072                 0.0051
 IR Inten    --      0.8230                 0.2554                 0.1986

                      4                      5                      6
                      A                      A                      A
 Frequencies --     73.2970                91.8364               144.2671
 Red. masses --      5.7797                 2.4906                 3.4300
 Frc consts  --      0.0183                 0.0124                 0.0421
 IR Inten    --      0.1650                 0.1482                 4.3293

                      7                      8                      9
                      A                      A                      A
 Frequencies --    164.5931               221.8871               230.8031
 Red. masses --      1.4398                 2.2942                 4.5771
 Frc consts  --      0.0230                 0.0666                 0.1437
 IR Inten    --      0.8551                 2.9164                 0.7619

                     10                     11                     12
                      A                      A                      A
 Frequencies --    245.2429               310.5531               346.5522
 Red. masses --      3.2518                 5.4966                 2.9596
 Frc consts  --      0.1152                 0.3123                 0.2094
 IR Inten    --      0.9075                 1.1497                14.6693

                     13                     14                     15
                      A                      A                      A
 Frequencies --    383.1371               398.6193               430.6055
 Red. masses --      4.5279                 3.2054                 3.2438
 Frc consts  --      0.3916                 0.3001                 0.3544
 IR Inten    --      2.1825                 0.2368                 0.2916

                     16                     17                     18
                      A                      A                      A
 Frequencies --    477.9372               529.2210               535.8448
 Red. masses --      4.6007                 4.0320                 4.5532
 Frc consts  --      0.6192                 0.6653                 0.7703
 IR Inten    --      6.3071                 6.8124                 3.0116

                     19                     20                     21
                      A                      A                      A
 Frequencies --    560.8368               644.5078               691.4290
 Red. masses --      4.4009                 7.1232                 6.9708
 Frc consts  --      0.8156                 1.7433                 1.9635
 IR Inten    --      2.4435                 0.1294                 2.9649

                     22                     23                     24
                      A                      A                      A
 Frequencies --    722.4865               790.6905               839.4645
 Red. masses --      3.4946                 5.3059                 5.0301
 Frc consts  --      1.0748                 1.9544                 2.0885
 IR Inten    --     12.4376                16.4568                 1.9912

                     25                     26                     27
                      A                      A                      A
 Frequencies --    844.8920               873.5500               884.3833
 Red. masses --      1.3391                 6.2310                 2.0699
 Frc consts  --      0.5632                 2.8015                 0.9539
 IR Inten    --      1.0120                47.7610                29.0479

                     28                     29                     30
                      A                      A                      A
 Frequencies --    916.7315               968.2443               996.3701
 Red. masses --      3.6766                 1.3160                 1.3973
 Frc consts  --      1.8205                 0.7269                 0.8173
 IR Inten    --      5.8119                 0.3811                23.9909

                     31                     32                     33
                      A                      A                      A
 Frequencies --    999.4120              1019.6137              1088.3197
 Red. masses --      1.4457                 2.6676                 1.3885
 Frc consts  --      0.8508                 1.6339                 0.9689
 IR Inten    --     40.3497                 0.0321                 6.8018

                     34                     35                     36
                      A                      A                      A
 Frequencies --   1118.2349              1122.7140              1131.1729
 Red. masses --      1.7787                 1.3532                 2.1471
 Frc consts  --      1.3105                 1.0049                 1.6187
 IR Inten    --    364.9838               106.6671                 1.3932

                     37                     38                     39
                      A                      A                      A
 Frequencies --   1133.8083              1180.3260              1194.1105
 Red. masses --      1.2268                 1.3712                 1.3586
 Frc consts  --      0.9292                 1.1256                 1.1414
 IR Inten    --      1.6731                 5.3837                12.7119

                     40                     41                     42
                      A                      A                      A
 Frequencies --   1252.6320              1285.1302              1308.9133
 Red. masses --      3.8943                 3.0049                 1.4472
 Frc consts  --      3.6002                 2.9240                 1.4608
 IR Inten    --     25.9551                70.2492                17.9482

                     43                     44                     45
                      A                      A                      A
 Frequencies --   1351.5195              1381.8870              1407.7171
 Red. masses --      6.7470                10.0045                 1.4660
 Frc consts  --      7.2612                11.2562                 1.7117
 IR Inten    --      7.4077               877.0552                33.8749

                     46                     47                     48
                      A                      A                      A
 Frequencies --   1440.2419              1441.8881              1454.6852
 Red. masses --      2.7730                 1.2285                 2.2205
 Frc consts  --      3.3890                 1.5048                 2.7684
 IR Inten    --      8.2137                 6.7748                69.8415

                     49                     50                     51
                      A                      A                      A
 Frequencies --   1471.6760              1475.5563              1495.6726
 Red. masses --      1.2513                 1.0414                 1.0624
 Frc consts  --      1.5967                 1.3359                 1.4003
 IR Inten    --     32.8088                 3.4075                15.4424

                     52                     53                     54
                      A                      A                      A
 Frequencies --   1503.0234              1521.3870              1548.6048
 Red. masses --      1.0969                 1.7864                 1.7318
 Frc consts  --      1.4599                 2.4361                 2.4470
 IR Inten    --      9.9476                37.2204                30.4209

                     55                     56                     57
                      A                      A                      A
 Frequencies --   1586.3121              1625.1695              1643.3131
 Red. masses --      9.4602                 6.0572                10.2523
 Frc consts  --     14.0259                 9.4258                16.3122
 IR Inten    --     67.6184               512.7061               189.3644

                     58                     59                     60
                      A                      A                      A
 Frequencies --   1709.2024              3008.5257              3018.2319
 Red. masses --      6.0118                 1.0383                 1.0400
 Frc consts  --     10.3477                 5.5372                 5.5819
 IR Inten    --    889.9802                60.2537               104.9673

                     61                     62                     63
                      A                      A                      A
 Frequencies --   3049.9433              3058.6653              3070.0478
 Red. masses --      1.0862                 1.1009                 1.1016
 Frc consts  --      5.9530                 6.0681                 6.1176
 IR Inten    --     30.0150                36.3929                19.5103

                     64                     65                     66
                      A                      A                      A
 Frequencies --   3127.1041              3167.9369              3185.7767
 Red. masses --      1.0982                 1.0968                 1.0887
 Frc consts  --      6.3274                 6.4852                 6.5102
 IR Inten    --     14.4996                 0.8118                 9.2064

                     67                     68                     69
                      A                      A                      A
 Frequencies --   3200.5343              3231.4900              3234.0047
 Red. masses --      1.0893                 1.0919                 1.0926
 Frc consts  --      6.5745                 6.7183                 6.7325
 IR Inten    --      4.5694                 0.5737                 0.8479

 - Thermochemistry -
 -------------------
 Temperature   298.150 Kelvin.  Pressure   1.00000 Atm.
 Atom     1 has atomic number  6 and mass  12.00000

 Molecular mass:   193.08513 amu.
 Principal axes and moments of inertia in atomic units:
                           1         2         3
     Eigenvalues --   702.939197194.510077716.92137
           X            0.99999   0.00434  -0.00145
           Y           -0.00436   0.99990  -0.01350
           Z            0.00139   0.01351   0.99991
 This molecule is an asymmetric top.
 Rotational symmetry number  1.
 Warning -- assumption of classical behavior for rotation
           may cause significant error
 Rotational temperatures (Kelvin)      0.12322     0.01204     0.01122
 Rotational constants (GHZ):           2.56742     0.25085     0.23387
 Zero-point vibrational energy     518763.2 (Joules/Mol)
                                  123.98737 (Kcal/Mol)
 Warning -- explicit consideration of  19 degrees of freedom as
           vibrations may cause significant error
 Vibrational temperatures:     64.93    76.78    99.91   105.46   132.13
          (Kelvin)            207.57   236.81   319.25   332.07   352.85
                              446.82   498.61   551.25   573.52   619.54
                              687.64   761.43   770.96   806.92   927.30
                              994.81  1039.50  1137.63  1207.80  1215.61
                             1256.84  1272.43  1318.97  1393.09  1433.55
                             1437.93  1466.99  1565.85  1608.89  1615.33
                             1627.50  1631.30  1698.22  1718.06  1802.26
                             1849.01  1883.23  1944.53  1988.22  2025.39
                             2072.18  2074.55  2092.97  2117.41  2122.99
                             2151.94  2162.51  2188.93  2228.09  2282.35
                             2338.25  2364.36  2459.16  4328.59  4342.56
                             4388.18  4400.73  4417.11  4499.20  4557.95
                             4583.62  4604.85  4649.39  4653.01

 Zero-point correction=                           0.197586 (Hartree/Particle)
 Thermal correction to Energy=                    0.210907
 Thermal correction to Enthalpy=                  0.211851
 Thermal correction to Gibbs Free Energy=         0.156301
 Sum of electronic and zero-point Energies=           -664.033839
 Sum of electronic and thermal Energies=              -664.020519
 Sum of electronic and thermal Enthalpies=            -664.019574
 Sum of electronic and thermal Free Energies=         -664.075124

                     E (Thermal)             CV                S
                      KCal/Mol        Cal/Mol-Kelvin    Cal/Mol-Kelvin
 Total                  132.346             48.301            116.915
 Electronic               0.000              0.000              0.000
 Translational            0.889              2.981             41.679
 Rotational               0.889              2.981             32.034
 Vibrational            130.569             42.339             43.201
 Vibration     1          0.595              1.979              5.020
 Vibration     2          0.596              1.976              4.689
 Vibration     3          0.598              1.969              4.169
 Vibration     4          0.599              1.967              4.063
 Vibration     5          0.602              1.955              3.621
 Vibration     6          0.616              1.909              2.747
 Vibration     7          0.623              1.886              2.496
 Vibration     8          0.648              1.808              1.944
 Vibration     9          0.653              1.794              1.873
 Vibration    10          0.660              1.771              1.765
 Vibration    11          0.699              1.654              1.359
 Vibration    12          0.725              1.582              1.182
 Vibration    13          0.752              1.506              1.027
 Vibration    14          0.765              1.473              0.968
 Vibration    15          0.792              1.404              0.857
 Vibration    16          0.834              1.299              0.716
 Vibration    17          0.884              1.185              0.589
 Vibration    18          0.891              1.171              0.574
 Vibration    19          0.916              1.116              0.522

 Normal termination of Gaussian 09 at Thu Aug 26 18:06:18 2021.

 -----------------------------------------------------------------
 #P Geom=AllCheck Guess=TCheck SCRF=Check CCSD(T,E4T,FrzG4)/GTBas1
 -----------------------------------------------------------------

 Structure from the checkpoint file:  "/public/home/users/caep010/.cache/gau_scr/Gau-90233.chk"
 ------
 VUYKUV
 ------
 Charge =  0 Multiplicity = 1

 SCF Done:  E(RHF) =  -660.153510783     A.U. after   15 cycles
 E2 =    -0.2010507260D+01 EUMP2 =    -0.66216401804326D+03
 CCSD(T)
 CCSD(T)= -0.66230695814D+03
 24\CCSD(T)=-662.3069581\RMSD=5.005e-09\PG=C01 [X(C9H11N3O2)]\\@
 Normal termination of Gaussian 09 at Thu Aug 26 21:01:51 2021.

 ---------------------------------------------------------
 #P Geom=AllCheck Guess=TCheck SCRF=Check MP4=FrzG4/GTBas2
 ---------------------------------------------------------

 Structure from the checkpoint file:  "/public/home/users/caep010/.cache/gau_scr/Gau-90233.chk"
 ------
 VUYKUV
 ------
 Charge =  0 Multiplicity = 1

 SCF Done:  E(RHF) =  -660.170818601     A.U. after   16 cycles
 E2 =    -0.2035722423D+01 EUMP2 =    -0.66220654102349D+03
 Normal termination of Gaussian 09 at Thu Aug 26 22:15:27 2021.

 ---------------------------------------------------------
 #P Geom=AllCheck Guess=TCheck SCRF=Check MP4=FrzG4/GTBas3
 ---------------------------------------------------------

 Structure from the checkpoint file:  "/public/home/users/caep010/.cache/gau_scr/Gau-90233.chk"
 ------
 VUYKUV
 ------
 Charge =  0 Multiplicity = 1

 SCF Done:  E(RHF) =  -660.221422719     A.U. after   13 cycles
 E2 =    -0.2410016165D+01 EUMP2 =    -0.66263143888454D+03
 Normal termination of Gaussian 09 at Fri Aug 27 06:17:54 2021.

 -----------------------------------------------------------
 #P Geom=AllCheck Guess=TCheck SCRF=Check MP2=Full/GTLargeXP
 -----------------------------------------------------------

 Structure from the checkpoint file:  "/public/home/users/caep010/.cache/gau_scr/Gau-90233.chk"
 ------
 VUYKUV
 ------
 Charge =  0 Multiplicity = 1

 SCF Done:  E(RHF) =  -660.377083928     A.U. after   15 cycles
 E2 =    -0.3165521953D+01 EUMP2 =    -0.66354260588078D+03
 Normal termination of Gaussian 09 at Fri Aug 27 06:36:47 2021.
 SCF Done:  E(RHF) =  -660.428882964     A.U. after   10 cycles
 Normal termination of Gaussian 09 at Fri Aug 27 06:45:35 2021.

                         Standard orientation:
 ---------------------------------------------------------------------
 Center     Atomic      Atomic             Coordinates (Angstroms)
 Number     Number       Type             X           Y           Z
 ---------------------------------------------------------------------
      1          6           0       -2.532746   -0.288192    0.199944
      2          1           0       -2.225611   -1.210605    0.706790
      3          7           0       -3.872447   -0.177178    0.056335
      4          6           0       -4.775153   -1.137694    0.653957
      5          6           0       -4.468753    0.974993   -0.595928
      6          7           0       -1.697383    0.605276   -0.195976
      7          6           0       -0.334182    0.354938   -0.130689
      8          6           0        0.522881    1.431594    0.169939
      9          6           0        1.892652    1.257163    0.239754
     10          6           0        2.429792   -0.005436   -0.009778
     11          6           0        0.243329   -0.902988   -0.400473
     12          7           0        3.876935   -0.195703    0.057742
     13          6           0        1.615267   -1.085966   -0.335316
     14          8           0        4.319167   -1.318189   -0.169921
     15          8           0        4.569924    0.776975    0.340816
     16          1           0        2.070985   -2.045061   -0.542001
     17          1           0        2.558651    2.074685    0.480741
     18          1           0        0.077819    2.401887    0.356801
     19          1           0       -5.378242   -0.677550    1.448148
     20          1           0       -0.392575   -1.731193   -0.693487
     21          1           0       -3.673671    1.575473   -1.035120
     22          1           0       -5.163280    0.647363   -1.378197
     23          1           0       -5.461417   -1.544933   -0.098661
     24          1           0       -4.207438   -1.963846    1.087136
     25          1           0       -5.026222    1.586248    0.125534
 ---------------------------------------------------------------------

 SCF Done:  E(RHF) =  -660.438915886     A.U. after    7 cycles

 The electronic state is 1-A.
 Alpha  occ. eigenvalues --  -20.58266 -20.58225 -15.83695 -15.60957 -15.54886
 Alpha  occ. eigenvalues --  -11.34367 -11.29679 -11.28843 -11.28564 -11.27164
 Alpha  occ. eigenvalues --  -11.26364 -11.26074 -11.24477 -11.23903  -1.58635
 Alpha  occ. eigenvalues --   -1.37980  -1.31560  -1.23462  -1.17133  -1.06782
 Alpha  occ. eigenvalues --   -1.03806  -0.99788  -0.97845  -0.92145  -0.85778
 Alpha  occ. eigenvalues --   -0.82192  -0.78495  -0.76510  -0.73400  -0.71568
 Alpha  occ. eigenvalues --   -0.70326  -0.69809  -0.67156  -0.64861  -0.63419
 Alpha  occ. eigenvalues --   -0.62438  -0.60801  -0.58067  -0.57827  -0.57600
 Alpha  occ. eigenvalues --   -0.55498  -0.54197  -0.52047  -0.49843  -0.48202
 Alpha  occ. eigenvalues --   -0.47878  -0.44603  -0.44139  -0.38950  -0.35886
 Alpha  occ. eigenvalues --   -0.31404
 Alpha virt. eigenvalues --    0.01962   0.03118   0.03440   0.03683   0.04689
 Alpha virt. eigenvalues --    0.05084   0.05436   0.05808   0.06031   0.06245
 Alpha virt. eigenvalues --    0.07046   0.07517   0.07946   0.08533   0.08669

 Mulliken charges:
               1
     1  C    0.125638
     2  H    0.192293
     3  N    0.043853
     4  C   -0.478973
     5  C   -0.474201
     6  N   -0.563208
     7  C    0.249239
     8  C   -0.220865
     9  C   -0.185874
    10  C    0.097506
    11  C   -0.267833
    12  N    0.515478
    13  C   -0.204702
    14  O   -0.450695
    15  O   -0.446280
    16  H    0.258215
    17  H    0.259041
    18  H    0.227320
    19  H    0.176663
    20  H    0.201470
    21  H    0.238563
    22  H    0.170971
    23  H    0.179534
    24  H    0.185359
    25  H    0.171484
 Sum of Mulliken charges =  -0.00000

 Dipole moment (field-independent basis, Debye):
    X=             -9.5255    Y=             -1.1497    Z=              0.6011  Tot=              9.6134
 Quadrupole moment (field-independent basis, Debye-Ang):
   XX=            -92.5639   YY=            -78.9051   ZZ=            -83.6238
   XY=              7.1418   XZ=             -2.7668   YZ=             -0.1143

 Normal termination of Gaussian 09 at Fri Aug 27 07:37:19 2021.
