 Gaussian 09, Revision E.01,
 Gaussian 09:  ES64L-G09RevE.01 30-Nov-2015

 ----------------
 #P G4 OPT=calcfc
 ----------------

 --------
 VAZCAC01
 --------
 Symbolic Z-matrix:
 Charge =  0 Multiplicity = 1

 SCF Done:  E(RB3LYP) =  -706.546337518     A.U. after   16 cycles
 SCF Done:  E(RB3LYP) =  -706.582802778     A.U. after   14 cycles
 SCF Done:  E(RB3LYP) =  -706.588163578     A.U. after   16 cycles
 SCF Done:  E(RB3LYP) =  -706.589940708     A.U. after   14 cycles
 SCF Done:  E(RB3LYP) =  -706.590694716     A.U. after   15 cycles
 SCF Done:  E(RB3LYP) =  -706.591058638     A.U. after   15 cycles
 SCF Done:  E(RB3LYP) =  -706.591266924     A.U. after   14 cycles
 SCF Done:  E(RB3LYP) =  -706.591278011     A.U. after   12 cycles
 SCF Done:  E(RB3LYP) =  -706.591282057     A.U. after   10 cycles
 SCF Done:  E(RB3LYP) =  -706.591283140     A.U. after    9 cycles
 Optimization completed.
    -- Stationary point found.
 Normal termination of Gaussian 09 at Tue Aug 24 22:17:32 2021.

 ----------------------------------------------------------
 #P Geom=AllCheck Guess=TCheck SCRF=Check B3LYP/GTBas3 Freq
 ----------------------------------------------------------

 Structure from the checkpoint file:  "/public/home/users/caep010/.cache/gau_scr/Gau-620.chk"
 --------
 VAZCAC01
 --------
 Charge =  0 Multiplicity = 1

 SCF Done:  E(RB3LYP) =  -706.591283140     A.U. after    1 cycles

  Exact polarizability: 113.565   2.048  95.785   0.215   1.269  36.865
 Approx polarizability: 176.111   3.651 213.200   0.312   3.324  60.952

                      1                      2                      3
                      A                      A                      A
 Frequencies --     42.2316                63.3829               129.0067
 Red. masses --     14.5164                 8.6223                10.1614
 Frc consts  --      0.0153                 0.0204                 0.0996
 IR Inten    --      0.3108                 2.8520                 1.9625

                      4                      5                      6
                      A                      A                      A
 Frequencies --    154.0701               213.4781               253.0919
 Red. masses --     11.4369                 4.6551                 1.4442
 Frc consts  --      0.1600                 0.1250                 0.0545
 IR Inten    --      1.3016                11.9076                32.1477

                      7                      8                      9
                      A                      A                      A
 Frequencies --    274.2199               344.2800               354.6449
 Red. masses --      4.7188                 8.6665                11.2822
 Frc consts  --      0.2091                 0.6052                 0.8360
 IR Inten    --      9.4064                 2.6322                 0.6591

                     10                     11                     12
                      A                      A                      A
 Frequencies --    372.5402               477.1713               524.4158
 Red. masses --      7.2684                11.2412                10.3735
 Frc consts  --      0.5943                 1.5080                 1.6808
 IR Inten    --      0.5103                 0.6393                 0.3205

                     13                     14                     15
                      A                      A                      A
 Frequencies --    642.7811               660.5792               667.7669
 Red. masses --      9.0115                10.7427                11.7647
 Frc consts  --      2.1937                 2.7619                 3.0909
 IR Inten    --      1.7607                17.2348                 7.8828

                     16                     17                     18
                      A                      A                      A
 Frequencies --    734.8158               778.3330               804.3773
 Red. masses --      7.8298                13.4002                13.1855
 Frc consts  --      2.4909                 4.7829                 5.0265
 IR Inten    --     51.3746                 2.5962                 0.6205

                     19                     20                     21
                      A                      A                      A
 Frequencies --    841.2707               866.5017               927.7174
 Red. masses --     13.0709                 6.5178                 1.6121
 Frc consts  --      5.4504                 2.8833                 0.8175
 IR Inten    --     40.2941               113.6440               191.6014

                     22                     23                     24
                      A                      A                      A
 Frequencies --   1043.7871              1137.5679              1233.3631
 Red. masses --     11.5513                 3.5185                 4.4782
 Frc consts  --      7.4149                 2.6826                 4.0137
 IR Inten    --      2.9045                25.4996                 1.4650

                     25                     26                     27
                      A                      A                      A
 Frequencies --   1369.0981              1375.2552              1385.2442
 Red. masses --     11.9130                12.7180                 8.4324
 Frc consts  --     13.1565                14.1722                 9.5336
 IR Inten    --    161.0244               256.8054                 1.4592

                     28                     29                     30
                      A                      A                      A
 Frequencies --   1409.7405              1451.9608              1517.7105
 Red. masses --      7.2968                 5.0143                 5.4464
 Frc consts  --      8.5440                 6.2284                 7.3916
 IR Inten    --     48.6105                15.6458                 2.7115

                     31                     32                     33
                      A                      A                      A
 Frequencies --   1535.0036              1596.8880              1660.1387
 Red. masses --      4.4618                 1.3107                 5.0276
 Frc consts  --      6.1941                 1.9692                 8.1639
 IR Inten    --     79.2807               180.8196                21.2954

                     34                     35                     36
                      A                      A                      A
 Frequencies --   1667.6776              3479.7695              3596.9026
 Red. masses --     10.7919                 1.0460                 1.0993
 Frc consts  --     17.6837                 7.4622                 8.3796
 IR Inten    --    294.5722                43.9010                72.4968

 - Thermochemistry -
 -------------------
 Temperature   298.150 Kelvin.  Pressure   1.00000 Atm.
 Atom     1 has atomic number  7 and mass  14.00307

 Molecular mass:   174.01375 amu.
 Principal axes and moments of inertia in atomic units:
                           1         2         3
     Eigenvalues --   879.193142846.174283718.59367
           X            0.99991   0.01359   0.00113
           Y           -0.01360   0.99989   0.00589
           Z           -0.00105  -0.00590   0.99998
 This molecule is an asymmetric top.
 Rotational symmetry number  1.
 Warning -- assumption of classical behavior for rotation
           may cause significant error
 Rotational temperatures (Kelvin)      0.09852     0.03043     0.02329
 Rotational constants (GHZ):           2.05272     0.63409     0.48533
 Zero-point vibrational energy     212856.2 (Joules/Mol)
                                   50.87386 (Kcal/Mol)
 Warning -- explicit consideration of  12 degrees of freedom as
           vibrations may cause significant error
 Vibrational temperatures:     60.76    91.19   185.61   221.67   307.15
          (Kelvin)            364.14   394.54   495.34   510.25   536.00
                              686.54   754.52   924.82   950.42   960.77
                             1057.23  1119.85  1157.32  1210.40  1246.70
                             1334.78  1501.77  1636.70  1774.53  1969.82
                             1978.68  1993.06  2028.30  2089.05  2183.64
                             2208.53  2297.56  2388.57  2399.41  5006.61
                             5175.13

 Zero-point correction=                           0.081073 (Hartree/Particle)
 Thermal correction to Energy=                    0.090819
 Thermal correction to Enthalpy=                  0.091764
 Thermal correction to Gibbs Free Energy=         0.044431
 Sum of electronic and zero-point Energies=           -706.510210
 Sum of electronic and thermal Energies=              -706.500464
 Sum of electronic and thermal Enthalpies=            -706.499520
 Sum of electronic and thermal Free Energies=         -706.546853

                     E (Thermal)             CV                S
                      KCal/Mol        Cal/Mol-Kelvin    Cal/Mol-Kelvin
 Total                   56.990             34.218             99.621
 Electronic               0.000              0.000              0.000
 Translational            0.889              2.981             41.369
 Rotational               0.889              2.981             30.610
 Vibrational             55.213             28.256             27.641
 Vibration     1          0.595              1.980              5.152
 Vibration     2          0.597              1.972              4.349
 Vibration     3          0.611              1.924              2.961
 Vibration     4          0.620              1.898              2.621
 Vibration     5          0.644              1.820              2.014
 Vibration     6          0.664              1.758              1.709
 Vibration     7          0.677              1.721              1.569
 Vibration     8          0.723              1.587              1.192
 Vibration     9          0.730              1.566              1.145
 Vibration    10          0.744              1.529              1.069
 Vibration    11          0.834              1.301              0.718
 Vibration    12          0.879              1.196              0.600

 Optimization completed.
    -- Stationary point found.
 Normal termination of Gaussian 09 at Tue Aug 24 22:19:23 2021.

 -----------------------------------------------------------------
 #P Geom=AllCheck Guess=TCheck SCRF=Check CCSD(T,E4T,FrzG4)/GTBas1
 -----------------------------------------------------------------

 Structure from the checkpoint file:  "/public/home/users/caep010/.cache/gau_scr/Gau-620.chk"
 --------
 VAZCAC01
 --------
 Charge =  0 Multiplicity = 1

 SCF Done:  E(RHF) =  -702.681096841     A.U. after   16 cycles
 E2 =    -0.2003967640D+01 EUMP2 =    -0.70468506448044D+03
 CCSD(T)
 CCSD(T)= -0.70475562227D+03
 6751984\CCSD=-704.6653795\CCSD(T)=-704.7556223\RMSD=6.723e-09\PG=C01 [
 Normal termination of Gaussian 09 at Tue Aug 24 23:12:10 2021.

 ---------------------------------------------------------
 #P Geom=AllCheck Guess=TCheck SCRF=Check MP4=FrzG4/GTBas2
 ---------------------------------------------------------

 Structure from the checkpoint file:  "/public/home/users/caep010/.cache/gau_scr/Gau-620.chk"
 --------
 VAZCAC01
 --------
 Charge =  0 Multiplicity = 1

 SCF Done:  E(RHF) =  -702.701969059     A.U. after   13 cycles
 E2 =    -0.2031498105D+01 EUMP2 =    -0.70473346716465D+03
 Normal termination of Gaussian 09 at Tue Aug 24 23:30:33 2021.

 ---------------------------------------------------------
 #P Geom=AllCheck Guess=TCheck SCRF=Check MP4=FrzG4/GTBas3
 ---------------------------------------------------------

 Structure from the checkpoint file:  "/public/home/users/caep010/.cache/gau_scr/Gau-620.chk"
 --------
 VAZCAC01
 --------
 Charge =  0 Multiplicity = 1

 SCF Done:  E(RHF) =  -702.757344395     A.U. after   13 cycles
 E2 =    -0.2370244324D+01 EUMP2 =    -0.70512758871844D+03
 Normal termination of Gaussian 09 at Wed Aug 25 01:39:18 2021.

 -----------------------------------------------------------
 #P Geom=AllCheck Guess=TCheck SCRF=Check MP2=Full/GTLargeXP
 -----------------------------------------------------------

 Structure from the checkpoint file:  "/public/home/users/caep010/.cache/gau_scr/Gau-620.chk"
 --------
 VAZCAC01
 --------
 Charge =  0 Multiplicity = 1

 SCF Done:  E(RHF) =  -702.942100797     A.U. after   13 cycles
 E2 =    -0.3060071154D+01 EUMP2 =    -0.70600217195129D+03
 Normal termination of Gaussian 09 at Wed Aug 25 01:51:16 2021.
 SCF Done:  E(RHF) =  -702.998382668     A.U. after   10 cycles
 Normal termination of Gaussian 09 at Wed Aug 25 01:55:38 2021.

                         Standard orientation:
 ---------------------------------------------------------------------
 Center     Atomic      Atomic             Coordinates (Angstroms)
 Number     Number       Type             X           Y           Z
 ---------------------------------------------------------------------
      1          7           0        0.594775    1.094292   -0.025218
      2          7           0       -0.719505    1.270860   -0.022595
      3          6           0       -1.163958    0.009581   -0.008332
      4          7           0       -0.240014   -0.949275   -0.010714
      5          6           0        0.873416   -0.237557   -0.022618
      6          7           0       -2.599651   -0.270078    0.015321
      7          7           0        1.435551    2.187082   -0.160854
      8          1           0        2.341574    1.922288    0.218232
      9          8           0       -3.338979    0.700136    0.055072
     10          8           0       -2.924788   -1.443196   -0.006426
     11          7           0        2.213122   -0.776284    0.014542
     12          8           0        3.128089    0.045347    0.134297
     13          8           0        2.336465   -1.978563   -0.063597
     14          1           0        1.005426    2.959604    0.339325
 ---------------------------------------------------------------------

 SCF Done:  E(RHF) =  -703.009485867     A.U. after    7 cycles

 The electronic state is 1-A.
 Alpha  occ. eigenvalues --  -20.66385 -20.65082 -20.62750 -20.62485 -15.91572
 Alpha  occ. eigenvalues --  -15.88326 -15.78585 -15.68676 -15.66655 -15.64992
 Alpha  occ. eigenvalues --  -11.42989 -11.40312  -1.66590  -1.63583  -1.53262
 Alpha  occ. eigenvalues --   -1.45827  -1.42983  -1.35324  -1.25960  -1.17635
 Alpha  occ. eigenvalues --   -1.08250  -1.02404  -0.91140  -0.87196  -0.83962
 Alpha  occ. eigenvalues --   -0.79764  -0.79311  -0.77741  -0.77189  -0.75691
 Alpha  occ. eigenvalues --   -0.73951  -0.72184  -0.71680  -0.60896  -0.57800
 Alpha  occ. eigenvalues --   -0.56054  -0.55575  -0.53703  -0.52533  -0.51700
 Alpha  occ. eigenvalues --   -0.50557  -0.47730  -0.46460  -0.42230
 Alpha virt. eigenvalues --   -0.00646   0.02257   0.02682   0.04185   0.04568
 Alpha virt. eigenvalues --    0.04842   0.06773   0.06953   0.07074   0.07276
 Alpha virt. eigenvalues --    0.08170   0.09977   0.10434   0.10797   0.11852

 Mulliken charges:
               1
     1  N    0.240151
     2  N   -0.289614
     3  C    0.388563
     4  N   -0.399539
     5  C    0.392863
     6  N    0.506882
     7  N   -0.575801
     8  H    0.364176
     9  O   -0.372889
    10  O   -0.363266
    11  N    0.503004
    12  O   -0.414725
    13  O   -0.326068
    14  H    0.346263
 Sum of Mulliken charges =  -0.00000

 Dipole moment (field-independent basis, Debye):
    X=              3.3468    Y=              3.8470    Z=              1.0897  Tot=              5.2142
 Quadrupole moment (field-independent basis, Debye-Ang):
   XX=            -85.0928   YY=            -68.9724   ZZ=            -64.0544
   XY=              5.6510   XZ=              1.8013   YZ=              3.3266

 Normal termination of Gaussian 09 at Wed Aug 25 02:22:52 2021.
