 Gaussian 09, Revision E.01,
 Gaussian 09:  ES64L-G09RevE.01 30-Nov-2015

 ----------------
 #P G4 OPT=calcfc
 ----------------

 ------
 VOQJER
 ------
 Symbolic Z-matrix:
 Charge =  0 Multiplicity = 1

 SCF Done:  E(RB3LYP) =  -570.597975689     A.U. after   15 cycles
 SCF Done:  E(RB3LYP) =  -570.711489218     A.U. after   12 cycles
 SCF Done:  E(RB3LYP) =  -570.778875246     A.U. after   13 cycles
 SCF Done:  E(RB3LYP) =  -570.779787574     A.U. after   12 cycles
 SCF Done:  E(RB3LYP) =  -570.780825134     A.U. after   14 cycles
 SCF Done:  E(RB3LYP) =  -570.779754218     A.U. after   13 cycles
 SCF Done:  E(RB3LYP) =  -570.780866842     A.U. after    9 cycles
 SCF Done:  E(RB3LYP) =  -570.780188572     A.U. after   13 cycles
 SCF Done:  E(RB3LYP) =  -570.781195110     A.U. after    9 cycles
 SCF Done:  E(RB3LYP) =  -570.781221849     A.U. after   12 cycles
 SCF Done:  E(RB3LYP) =  -570.781229700     A.U. after    9 cycles
 SCF Done:  E(RB3LYP) =  -570.781231512     A.U. after    8 cycles
 SCF Done:  E(RB3LYP) =  -570.781231763     A.U. after    8 cycles
 Optimization completed.
    -- Stationary point found.
 Normal termination of Gaussian 09 at Thu Aug 26 02:02:01 2021.

 ----------------------------------------------------------
 #P Geom=AllCheck Guess=TCheck SCRF=Check B3LYP/GTBas3 Freq
 ----------------------------------------------------------

 Structure from the checkpoint file:  "/public/home/users/caep010/.cache/gau_scr/Gau-77001.chk"
 ------
 VOQJER
 ------
 Charge =  0 Multiplicity = 1

 SCF Done:  E(RB3LYP) =  -570.781231763     A.U. after    1 cycles

  Exact polarizability: 155.230   2.860 121.792  -0.786   0.045  54.711
 Approx polarizability: 227.884   8.293 230.450  -1.190   1.893  89.264

                      1                      2                      3
                      A                      A                      A
 Frequencies --     54.2843                75.0009               121.9310
 Red. masses --      7.6791                 4.2705                 2.3407
 Frc consts  --      0.0133                 0.0142                 0.0205
 IR Inten    --      0.2860                 0.4348                 0.4109

                      4                      5                      6
                      A                      A                      A
 Frequencies --    171.0539               208.4876               242.5391
 Red. masses --      4.4192                 3.3496                 4.6398
 Frc consts  --      0.0762                 0.0858                 0.1608
 IR Inten    --      0.5833                 0.7927                 0.4349

                      7                      8                      9
                      A                      A                      A
 Frequencies --    257.7835               315.5408               325.4624
 Red. masses --      1.4625                 1.8829                 2.7240
 Frc consts  --      0.0573                 0.1105                 0.1700
 IR Inten    --      2.5670                 8.4474                 1.7675

                     10                     11                     12
                      A                      A                      A
 Frequencies --    348.6402               377.3587               454.6006
 Red. masses --      1.3540                 4.8688                 3.0010
 Frc consts  --      0.0970                 0.4085                 0.3654
 IR Inten    --     21.0912                 1.9663                 7.2528

                     13                     14                     15
                      A                      A                      A
 Frequencies --    464.1196               543.1219               565.1124
 Red. masses --      4.6407                 5.8912                 2.4186
 Frc consts  --      0.5890                 1.0239                 0.4551
 IR Inten    --      0.8414                16.1305                78.7310

                     16                     17                     18
                      A                      A                      A
 Frequencies --    574.7829               614.1263               642.5104
 Red. masses --      3.9642                 1.8977                 5.4454
 Frc consts  --      0.7716                 0.4217                 1.3245
 IR Inten    --      2.5854               179.5395                 5.5812

                     19                     20                     21
                      A                      A                      A
 Frequencies --    721.7679               750.8773               767.6642
 Red. masses --      2.3157                 3.9383                 2.9236
 Frc consts  --      0.7108                 1.3083                 1.0151
 IR Inten    --      4.4080                 0.0233                31.9968

                     22                     23                     24
                      A                      A                      A
 Frequencies --    808.1248               831.6658               853.3340
 Red. masses --      1.5002                 8.9929                 1.5352
 Frc consts  --      0.5772                 3.6648                 0.6586
 IR Inten    --      3.0378                35.7548                 3.5126

                     25                     26                     27
                      A                      A                      A
 Frequencies --    908.5983               957.5247               963.8092
 Red. masses --      1.6349                 1.3148                 4.8310
 Frc consts  --      0.7952                 0.7102                 2.6440
 IR Inten    --     20.4433                 0.6682                 9.1656

                     28                     29                     30
                      A                      A                      A
 Frequencies --    994.4561              1065.9415              1085.7007
 Red. masses --      1.8969                 2.0049                 1.9812
 Frc consts  --      1.1053                 1.3422                 1.3759
 IR Inten    --      1.1348                 3.4962                 3.9816

                     31                     32                     33
                      A                      A                      A
 Frequencies --   1104.3334              1119.2643              1165.9562
 Red. masses --      1.5654                 1.5116                 1.4339
 Frc consts  --      1.1248                 1.1157                 1.1485
 IR Inten    --      1.3590                37.8308                 2.8674

                     34                     35                     36
                      A                      A                      A
 Frequencies --   1193.6720              1294.1771              1298.1867
 Red. masses --      2.3292                 2.2842                 1.1778
 Frc consts  --      1.9554                 2.2541                 1.1694
 IR Inten    --      1.3549                32.3051                 0.5765

                     37                     38                     39
                      A                      A                      A
 Frequencies --   1308.4089              1357.4036              1388.6898
 Red. masses --      1.6674                 2.3960                 4.5806
 Frc consts  --      1.6818                 2.6011                 5.2046
 IR Inten    --      5.9892                57.4372               173.3147

                     40                     41                     42
                      A                      A                      A
 Frequencies --   1397.0699              1415.5831              1460.1919
 Red. masses --      4.2611                 1.2546                 3.6295
 Frc consts  --      4.9001                 1.4812                 4.5595
 IR Inten    --    160.2788                 0.3915                23.0494

                     43                     44                     45
                      A                      A                      A
 Frequencies --   1483.0105              1501.2502              1507.6218
 Red. masses --      1.1368                 1.0392                 1.0654
 Frc consts  --      1.4730                 1.3800                 1.4268
 IR Inten    --      8.2627                 5.6682                 5.9546

                     46                     47                     48
                      A                      A                      A
 Frequencies --   1527.4904              1606.1401              1632.6220
 Red. masses --      2.7006                 9.6015                 4.6653
 Frc consts  --      3.7125                14.5934                 7.3265
 IR Inten    --     43.9071               172.2596                47.2489

                     49                     50                     51
                      A                      A                      A
 Frequencies --   1653.9481              1669.3761              2976.4541
 Red. masses --      2.1182                 2.2824                 1.0690
 Frc consts  --      3.4139                 3.7476                 5.5799
 IR Inten    --    111.0424                33.1513                26.0684

                     52                     53                     54
                      A                      A                      A
 Frequencies --   3020.1197              3041.5872              3110.6562
 Red. masses --      1.0894                 1.0355                 1.1021
 Frc consts  --      5.8546                 5.6441                 6.2832
 IR Inten    --     10.7379                18.8594                23.7569

                     55                     56                     57
                      A                      A                      A
 Frequencies --   3113.7942              3202.9524              3217.8420
 Red. masses --      1.1013                 1.0881                 1.0901
 Frc consts  --      6.2913                 6.5768                 6.6504
 IR Inten    --     27.2243                 7.5159                 3.0014

                     58                     59                     60
                      A                      A                      A
 Frequencies --   3244.6331              3572.9460              3672.2328
 Red. masses --      1.0924                 1.0473                 1.0981
 Frc consts  --      6.7759                 7.8772                 8.7247
 IR Inten    --      1.6727                18.6011                16.1502

 - Thermochemistry -
 -------------------
 Temperature   298.150 Kelvin.  Pressure   1.00000 Atm.
 Atom     1 has atomic number  8 and mass  15.99491

 Molecular mass:   166.07423 amu.
 Principal axes and moments of inertia in atomic units:
                           1         2         3
     Eigenvalues --   901.569003283.877584161.01028
           X            0.99990  -0.01407  -0.00062
           Y            0.01406   0.99988  -0.00576
           Z            0.00070   0.00575   0.99998
 This molecule is an asymmetric top.
 Rotational symmetry number  1.
 Warning -- assumption of classical behavior for rotation
           may cause significant error
 Rotational temperatures (Kelvin)      0.09607     0.02638     0.02082
 Rotational constants (GHZ):           2.00178     0.54958     0.43373
 Zero-point vibrational energy     462497.4 (Joules/Mol)
                                  110.53954 (Kcal/Mol)
 Warning -- explicit consideration of  17 degrees of freedom as
           vibrations may cause significant error
 Vibrational temperatures:     78.10   107.91   175.43   246.11   299.97
          (Kelvin)            348.96   370.89   453.99   468.27   501.61
                              542.93   654.07   667.76   781.43   813.07
                              826.98   883.59   924.43  1038.46  1080.34
                             1104.50  1162.71  1196.58  1227.76  1307.27
                             1377.66  1386.70  1430.80  1533.65  1562.08
                             1588.89  1610.37  1677.55  1717.43  1862.03
                             1867.80  1882.51  1953.00  1998.01  2010.07
                             2036.71  2100.89  2133.72  2159.96  2169.13
                             2197.72  2310.87  2348.98  2379.66  2401.86
                             4282.45  4345.27  4376.16  4475.53  4480.05
                             4608.33  4629.75  4668.30  5140.67  5283.52

 Zero-point correction=                           0.176156 (Hartree/Particle)
 Thermal correction to Energy=                    0.187167
 Thermal correction to Enthalpy=                  0.188111
 Thermal correction to Gibbs Free Energy=         0.139215
 Sum of electronic and zero-point Energies=           -570.605076
 Sum of electronic and thermal Energies=              -570.594064
 Sum of electronic and thermal Enthalpies=            -570.593120
 Sum of electronic and thermal Free Energies=         -570.642017

                     E (Thermal)             CV                S
                      KCal/Mol        Cal/Mol-Kelvin    Cal/Mol-Kelvin
 Total                  117.449             42.180            102.911
 Electronic               0.000              0.000              0.000
 Translational            0.889              2.981             41.230
 Rotational               0.889              2.981             30.889
 Vibrational            115.672             36.218             30.793
 Vibration     1          0.596              1.976              4.655
 Vibration     2          0.599              1.966              4.018
 Vibration     3          0.609              1.931              3.070
 Vibration     4          0.626              1.878              2.424
 Vibration     5          0.642              1.828              2.057
 Vibration     6          0.659              1.775              1.784
 Vibration     7          0.667              1.750              1.677
 Vibration     8          0.703              1.644              1.333
 Vibration     9          0.710              1.625              1.283
 Vibration    10          0.726              1.578              1.172
 Vibration    11          0.748              1.518              1.050
 Vibration    12          0.813              1.351              0.782
 Vibration    13          0.822              1.330              0.754
 Vibration    14          0.898              1.155              0.559
 Vibration    15          0.921              1.107              0.514
 Vibration    16          0.931              1.086              0.495
 Vibration    17          0.974              1.002              0.426

 Optimization completed.
    -- Stationary point found.
 Normal termination of Gaussian 09 at Thu Aug 26 02:04:45 2021.

 -----------------------------------------------------------------
 #P Geom=AllCheck Guess=TCheck SCRF=Check CCSD(T,E4T,FrzG4)/GTBas1
 -----------------------------------------------------------------

 Structure from the checkpoint file:  "/public/home/users/caep010/.cache/gau_scr/Gau-77001.chk"
 ------
 VOQJER
 ------
 Charge =  0 Multiplicity = 1

 SCF Done:  E(RHF) =  -567.267324306     A.U. after   14 cycles
 E2 =    -0.1731731445D+01 EUMP2 =    -0.56899905575098D+03
 CCSD(T)
 CCSD(T)= -0.56911994903D+03
 \CCSD=-569.0441264\CCSD(T)=-569.119949\RMSD=9.306e-09\PG=C01 [X(C8H10N
 Normal termination of Gaussian 09 at Thu Aug 26 03:10:08 2021.

 ---------------------------------------------------------
 #P Geom=AllCheck Guess=TCheck SCRF=Check MP4=FrzG4/GTBas2
 ---------------------------------------------------------

 Structure from the checkpoint file:  "/public/home/users/caep010/.cache/gau_scr/Gau-77001.chk"
 ------
 VOQJER
 ------
 Charge =  0 Multiplicity = 1

 SCF Done:  E(RHF) =  -567.283120542     A.U. after   17 cycles
 E2 =    -0.1753625893D+01 EUMP2 =    -0.56903674643475D+03
 Normal termination of Gaussian 09 at Thu Aug 26 03:34:48 2021.

 ---------------------------------------------------------
 #P Geom=AllCheck Guess=TCheck SCRF=Check MP4=FrzG4/GTBas3
 ---------------------------------------------------------

 Structure from the checkpoint file:  "/public/home/users/caep010/.cache/gau_scr/Gau-77001.chk"
 ------
 VOQJER
 ------
 Charge =  0 Multiplicity = 1

 SCF Done:  E(RHF) =  -567.330293682     A.U. after   12 cycles
 E2 =    -0.2081250652D+01 EUMP2 =    -0.56941154433460D+03
 Normal termination of Gaussian 09 at Thu Aug 26 06:30:44 2021.

 -----------------------------------------------------------
 #P Geom=AllCheck Guess=TCheck SCRF=Check MP2=Full/GTLargeXP
 -----------------------------------------------------------

 Structure from the checkpoint file:  "/public/home/users/caep010/.cache/gau_scr/Gau-77001.chk"
 ------
 VOQJER
 ------
 Charge =  0 Multiplicity = 1

 SCF Done:  E(RHF) =  -567.465028464     A.U. after   14 cycles
 E2 =    -0.2731569276D+01 EUMP2 =    -0.57019659774053D+03
 Normal termination of Gaussian 09 at Thu Aug 26 06:42:35 2021.
 SCF Done:  E(RHF) =  -567.510566641     A.U. after   10 cycles
 Normal termination of Gaussian 09 at Thu Aug 26 06:49:16 2021.

                         Standard orientation:
 ---------------------------------------------------------------------
 Center     Atomic      Atomic             Coordinates (Angstroms)
 Number     Number       Type             X           Y           Z
 ---------------------------------------------------------------------
      1          8           0       -3.376100    0.866633    0.020360
      2          7           0       -2.774378   -0.201413    0.007188
      3          8           0       -3.312892   -1.301582   -0.000101
      4          6           0       -1.303534   -0.159816   -0.001468
      5          6           0       -0.675660    1.077518    0.005954
      6          1           0       -1.279901    1.975547    0.019629
      7          6           0        0.718977    1.140957   -0.002122
      8          7           0        1.359623    2.375990    0.072176
      9          1           0        2.264350    2.431019   -0.370213
     10          1           0        0.779363    3.167930   -0.162286
     11          6           0        1.475151   -0.057128   -0.020781
     12          6           0        2.985441    0.037593   -0.013511
     13          1           0        3.284869    0.671822    0.832813
     14          6           0        3.752841   -1.284215    0.048509
     15          1           0        3.503477   -1.851478    0.950536
     16          1           0        4.829314   -1.092763    0.063204
     17          1           0        3.540942   -1.917184   -0.818656
     18          1           0        3.310588    0.587361   -0.911546
     19          6           0        0.796139   -1.274876   -0.033676
     20          1           0        1.364563   -2.196955   -0.048125
     21          6           0       -0.593184   -1.350622   -0.023267
     22          1           0       -1.119374   -2.294195   -0.030786
 ---------------------------------------------------------------------

 SCF Done:  E(RHF) =  -567.519356963     A.U. after    8 cycles

 The electronic state is 1-A.
 Alpha  occ. eigenvalues --  -20.59239 -20.59210 -15.84505 -15.58232 -11.30119
 Alpha  occ. eigenvalues --  -11.30013 -11.26420 -11.25620 -11.25458 -11.25331
 Alpha  occ. eigenvalues --  -11.25264 -11.23488  -1.59650  -1.39015  -1.25030
 Alpha  occ. eigenvalues --   -1.17224  -1.10383  -1.03639  -1.02039  -0.95162
 Alpha  occ. eigenvalues --   -0.87758  -0.84591  -0.80381  -0.77264  -0.73061
 Alpha  occ. eigenvalues --   -0.71168  -0.70515  -0.67278  -0.66879  -0.63873
 Alpha  occ. eigenvalues --   -0.62679  -0.61748  -0.57480  -0.55927  -0.55208
 Alpha  occ. eigenvalues --   -0.51353  -0.51033  -0.50620  -0.48903  -0.48689
 Alpha  occ. eigenvalues --   -0.47573  -0.44855  -0.36254  -0.31804
 Alpha virt. eigenvalues --    0.02783   0.03224   0.04000   0.04145   0.04970
 Alpha virt. eigenvalues --    0.05240   0.06085   0.06771   0.07055   0.07695
 Alpha virt. eigenvalues --    0.07869   0.07999   0.09045   0.09244   0.09497

 Mulliken charges:
               1
     1  O   -0.444894
     2  N    0.534582
     3  O   -0.437236
     4  C    0.061002
     5  C   -0.213288
     6  H    0.233758
     7  C    0.225565
     8  N   -0.747230
     9  H    0.316225
    10  H    0.310928
    11  C    0.212718
    12  C   -0.361709
    13  H    0.201557
    14  C   -0.607510
    15  H    0.178758
    16  H    0.184040
    17  H    0.174442
    18  H    0.166151
    19  C   -0.212166
    20  H    0.212624
    21  C   -0.248426
    22  H    0.260107
 Sum of Mulliken charges =  -0.00000

 Dipole moment (field-independent basis, Debye):
    X=              6.3941    Y=              1.1567    Z=             -0.9365  Tot=              6.5650
 Quadrupole moment (field-independent basis, Debye-Ang):
   XX=            -83.4250   YY=            -64.3125   ZZ=            -73.4268
   XY=             -0.6107   XZ=             -1.7863   YZ=             -2.8824

 Normal termination of Gaussian 09 at Thu Aug 26 07:32:45 2021.
