 Gaussian 09, Revision E.01,
 Gaussian 09:  ES64L-G09RevE.01 30-Nov-2015

 ----------------
 #P G4 OPT=calcfc
 ----------------

 ------
 WASRAJ
 ------
 Symbolic Z-matrix:
 Charge =  0 Multiplicity = 1

 SCF Done:  E(RB3LYP) =  -751.837537044     A.U. after   16 cycles
 SCF Done:  E(RB3LYP) =  -751.938945588     A.U. after   14 cycles
 SCF Done:  E(RB3LYP) =  -751.981054139     A.U. after   15 cycles
 SCF Done:  E(RB3LYP) =  -751.984051216     A.U. after   14 cycles
 SCF Done:  E(RB3LYP) =  -751.984373268     A.U. after   14 cycles
 SCF Done:  E(RB3LYP) =  -751.984414411     A.U. after   13 cycles
 SCF Done:  E(RB3LYP) =  -751.984419505     A.U. after    9 cycles
 SCF Done:  E(RB3LYP) =  -751.984420897     A.U. after    9 cycles
 SCF Done:  E(RB3LYP) =  -751.984421081     A.U. after    8 cycles
 Optimization completed.
    -- Stationary point found.
 Normal termination of Gaussian 09 at Wed Aug 25 10:51:48 2021.

 ----------------------------------------------------------
 #P Geom=AllCheck Guess=TCheck SCRF=Check B3LYP/GTBas3 Freq
 ----------------------------------------------------------

 Structure from the checkpoint file:  "/public/home/users/caep010/.cache/gau_scr/Gau-196111.chk"
 ------
 WASRAJ
 ------
 Charge =  0 Multiplicity = 1

 SCF Done:  E(RB3LYP) =  -751.984421081     A.U. after    2 cycles

  Exact polarizability: 173.956  -5.437 133.818   0.002   0.002  49.014
 Approx polarizability: 298.578 -11.008 255.611   0.017   0.005  81.167

                      1                      2                      3
                      A                      A                      A
 Frequencies --     58.0022                64.5655                76.8083
 Red. masses --     13.4689                10.9452                 4.1571
 Frc consts  --      0.0267                 0.0269                 0.0144
 IR Inten    --      0.2289                 0.7048                 1.2357

                      4                      5                      6
                      A                      A                      A
 Frequencies --    125.6963               165.6683               167.2720
 Red. masses --      5.9863                10.4761                 4.8414
 Frc consts  --      0.0557                 0.1694                 0.0798
 IR Inten    --      4.3664                 0.7005                14.8107

                      7                      8                      9
                      A                      A                      A
 Frequencies --    233.2552               256.0445               310.1629
 Red. masses --      5.2296                 1.1663                 7.3274
 Frc consts  --      0.1676                 0.0450                 0.4153
 IR Inten    --     10.4772                41.9383                 0.9393

                     10                     11                     12
                      A                      A                      A
 Frequencies --    316.9692               349.5139               389.1731
 Red. masses --      8.3868                 8.8571                10.0410
 Frc consts  --      0.4965                 0.6375                 0.8960
 IR Inten    --      0.2759                 1.5311                 0.2350

                     13                     14                     15
                      A                      A                      A
 Frequencies --    439.8440               450.9462               535.9097
 Red. masses --      8.6921                 3.8772                 3.4416
 Frc consts  --      0.9908                 0.4645                 0.5824
 IR Inten    --      0.6074                 0.8879                 3.2868

                     16                     17                     18
                      A                      A                      A
 Frequencies --    536.4165               612.8347               638.0312
 Red. masses --      9.0282                 1.0689                 6.3446
 Frc consts  --      1.5306                 0.2365                 1.5217
 IR Inten    --      7.5143                59.0633                 8.0100

                     19                     20                     21
                      A                      A                      A
 Frequencies --    667.6728               715.1648               721.8049
 Red. masses --      5.1741                 5.3099                 8.0777
 Frc consts  --      1.3590                 1.6001                 2.4796
 IR Inten    --      0.5163                 7.5384                36.9424

                     22                     23                     24
                      A                      A                      A
 Frequencies --    777.3087               794.1212               821.5436
 Red. masses --      5.6044                 6.6783                 4.4779
 Frc consts  --      1.9951                 2.4814                 1.7807
 IR Inten    --     18.9855                 3.1856                 2.5986

                     25                     26                     27
                      A                      A                      A
 Frequencies --    850.7756               878.1589               938.9649
 Red. masses --     11.9330                 1.5813                 4.2364
 Frc consts  --      5.0890                 0.7185                 2.2006
 IR Inten    --     12.5199                16.2217                 1.4014

                     28                     29                     30
                      A                      A                      A
 Frequencies --    941.8249               980.4156              1007.4181
 Red. masses --      2.2283                 1.4425                 1.3288
 Frc consts  --      1.1645                 0.8170                 0.7945
 IR Inten    --    105.5045                 6.5100                 0.1053

                     31                     32                     33
                      A                      A                      A
 Frequencies --   1073.2286              1130.6356              1154.5474
 Red. masses --      2.1068                 2.0418                 3.5092
 Frc consts  --      1.4297                 1.5378                 2.7560
 IR Inten    --     78.7341                 9.8806                92.2156

                     34                     35                     36
                      A                      A                      A
 Frequencies --   1166.8785              1244.1704              1302.8244
 Red. masses --      1.7317                 1.5826                 2.3175
 Frc consts  --      1.3892                 1.4434                 2.3176
 IR Inten    --     13.3528                19.0189               138.5585

                     37                     38                     39
                      A                      A                      A
 Frequencies --   1326.0724              1351.6716              1382.1695
 Red. masses --      1.1393                 5.0487                 9.7869
 Frc consts  --      1.1804                 5.4346                11.0158
 IR Inten    --      0.4159               183.1725               525.5875

                     40                     41                     42
                      A                      A                      A
 Frequencies --   1395.5631              1454.6679              1477.7117
 Red. masses --      4.6695                 4.6125                 2.6735
 Frc consts  --      5.3582                 5.7507                 3.4396
 IR Inten    --     30.5900                14.4452                87.7666

                     43                     44                     45
                      A                      A                      A
 Frequencies --   1547.5234              1590.5313              1611.8467
 Red. masses --      3.7678                 8.7947                 3.6105
 Frc consts  --      5.3164                13.1086                 5.5266
 IR Inten    --    106.6709                25.3082                23.1479

                     46                     47                     48
                      A                      A                      A
 Frequencies --   1644.7960              1657.1625              1701.7187
 Red. masses --      9.9019                 5.0801                 1.2858
 Frc consts  --     15.7832                 8.2197                 2.1938
 IR Inten    --    320.9013               218.6832               119.2914

                     49                     50                     51
                      A                      A                      A
 Frequencies --   3229.3441              3244.4266              3261.1447
 Red. masses --      1.0882                 1.0932                 1.0901
 Frc consts  --      6.6863                 6.7796                 6.8307
 IR Inten    --      1.9153                 0.7301                19.0586

                     52                     53                     54
                      A                      A                      A
 Frequencies --   3471.0594              3528.5049              3549.4386
 Red. masses --      1.0460                 1.0782                 1.0975
 Frc consts  --      7.4250                 7.9091                 8.1463
 IR Inten    --      1.2350               129.0781                 5.9910

 - Thermochemistry -
 -------------------
 Temperature   298.150 Kelvin.  Pressure   1.00000 Atm.
 Atom     1 has atomic number  8 and mass  15.99491

 Molecular mass:   198.03890 amu.
 Principal axes and moments of inertia in atomic units:
                           1         2         3
     Eigenvalues --  1643.607683706.847455340.71786
           X            0.99954  -0.03031  -0.00000
           Y            0.03031   0.99954   0.00000
           Z            0.00000  -0.00000   1.00000
 This molecule is an asymmetric top.
 Rotational symmetry number  1.
 Warning -- assumption of classical behavior for rotation
           may cause significant error
 Rotational temperatures (Kelvin)      0.05270     0.02337     0.01622
 Rotational constants (GHZ):           1.09804     0.48687     0.33792
 Zero-point vibrational energy     366774.6 (Joules/Mol)
                                   87.66123 (Kcal/Mol)
 Warning -- explicit consideration of  17 degrees of freedom as
           vibrations may cause significant error
 Vibrational temperatures:     83.45    92.90   110.51   180.85   238.36
          (Kelvin)            240.67   335.60   368.39   446.25   456.05
                              502.87   559.93   632.84   648.81   771.05
                              771.78   881.73   917.98   960.63  1028.96
                             1038.51  1118.37  1142.56  1182.02  1224.07
                             1263.47  1350.96  1355.07  1410.60  1449.45
                             1544.13  1626.73  1661.13  1678.88  1790.08
                             1874.47  1907.92  1944.75  1988.63  2007.90
                             2092.94  2126.09  2226.54  2288.42  2319.09
                             2366.49  2384.28  2448.39  4646.30  4668.00
                             4692.05  4994.07  5076.73  5106.84

 Zero-point correction=                           0.139697 (Hartree/Particle)
 Thermal correction to Energy=                    0.151598
 Thermal correction to Enthalpy=                  0.152542
 Thermal correction to Gibbs Free Energy=         0.100707
 Sum of electronic and zero-point Energies=           -751.844724
 Sum of electronic and thermal Energies=              -751.832823
 Sum of electronic and thermal Enthalpies=            -751.831879
 Sum of electronic and thermal Free Energies=         -751.883714

                     E (Thermal)             CV                S
                      KCal/Mol        Cal/Mol-Kelvin    Cal/Mol-Kelvin
 Total                   95.129             44.012            109.097
 Electronic               0.000              0.000              0.000
 Translational            0.889              2.981             41.755
 Rotational               0.889              2.981             31.854
 Vibrational             93.352             38.050             35.488
 Vibration     1          0.596              1.974              4.524
 Vibration     2          0.597              1.971              4.313
 Vibration     3          0.599              1.965              3.971
 Vibration     4          0.611              1.927              3.011
 Vibration     5          0.624              1.885              2.484
 Vibration     6          0.624              1.883              2.466
 Vibration     7          0.654              1.790              1.854
 Vibration     8          0.666              1.753              1.689
 Vibration     9          0.699              1.654              1.361
 Vibration    10          0.704              1.641              1.326
 Vibration    11          0.727              1.576              1.168
 Vibration    12          0.757              1.493              1.003
 Vibration    13          0.800              1.383              0.827
 Vibration    14          0.810              1.359              0.793
 Vibration    15          0.891              1.171              0.574
 Vibration    16          0.891              1.169              0.573
 Vibration    17          0.972              1.005              0.428

 Optimization completed.
    -- Stationary point found.
 Normal termination of Gaussian 09 at Wed Aug 25 10:55:24 2021.

 -----------------------------------------------------------------
 #P Geom=AllCheck Guess=TCheck SCRF=Check CCSD(T,E4T,FrzG4)/GTBas1
 -----------------------------------------------------------------

 Structure from the checkpoint file:  "/public/home/users/caep010/.cache/gau_scr/Gau-196111.chk"
 ------
 WASRAJ
 ------
 Charge =  0 Multiplicity = 1

 SCF Done:  E(RHF) =  -747.655336831     A.U. after   15 cycles
 E2 =    -0.2165160902D+01 EUMP2 =    -0.74982049773288D+03
 CCSD(T)
 CCSD(T)= -0.74993424707D+03
 87\MP4SDTQ=-749.958191\MP4SDQ=-749.8444333\CCSD=-749.8372767\CCSD(T)=-
 Normal termination of Gaussian 09 at Wed Aug 25 13:34:21 2021.

 ---------------------------------------------------------
 #P Geom=AllCheck Guess=TCheck SCRF=Check MP4=FrzG4/GTBas2
 ---------------------------------------------------------

 Structure from the checkpoint file:  "/public/home/users/caep010/.cache/gau_scr/Gau-196111.chk"
 ------
 WASRAJ
 ------
 Charge =  0 Multiplicity = 1

 SCF Done:  E(RHF) =  -747.677901867     A.U. after   23 cycles
 E2 =    -0.2195181602D+01 EUMP2 =    -0.74987308346887D+03
 Normal termination of Gaussian 09 at Wed Aug 25 14:30:06 2021.

 ---------------------------------------------------------
 #P Geom=AllCheck Guess=TCheck SCRF=Check MP4=FrzG4/GTBas3
 ---------------------------------------------------------

 Structure from the checkpoint file:  "/public/home/users/caep010/.cache/gau_scr/Gau-196111.chk"
 ------
 WASRAJ
 ------
 Charge =  0 Multiplicity = 1

 SCF Done:  E(RHF) =  -747.735241040     A.U. after   13 cycles
 E2 =    -0.2582729345D+01 EUMP2 =    -0.75031797038483D+03
 Normal termination of Gaussian 09 at Wed Aug 25 22:48:41 2021.

 -----------------------------------------------------------
 #P Geom=AllCheck Guess=TCheck SCRF=Check MP2=Full/GTLargeXP
 -----------------------------------------------------------

 Structure from the checkpoint file:  "/public/home/users/caep010/.cache/gau_scr/Gau-196111.chk"
 ------
 WASRAJ
 ------
 Charge =  0 Multiplicity = 1

 SCF Done:  E(RHF) =  -747.924876240     A.U. after   14 cycles
 E2 =    -0.3366553120D+01 EUMP2 =    -0.75129142936048D+03
 Normal termination of Gaussian 09 at Wed Aug 25 23:03:05 2021.
 SCF Done:  E(RHF) =  -747.985202227     A.U. after   10 cycles
 Normal termination of Gaussian 09 at Wed Aug 25 23:11:11 2021.

                         Standard orientation:
 ---------------------------------------------------------------------
 Center     Atomic      Atomic             Coordinates (Angstroms)
 Number     Number       Type             X           Y           Z
 ---------------------------------------------------------------------
      1          8           0        0.928220    2.882844   -0.000511
      2          7           0        1.473669    1.790102   -0.000068
      3          6           0        0.641935    0.596737    0.000087
      4          8           0        2.707509    1.654058    0.000295
      5          6           0       -0.735569    0.803022    0.000062
      6          6           0        1.195199   -0.720841    0.000122
      7          7           0        2.527358   -0.950793    0.000224
      8          7           0        3.030209   -2.258903   -0.000188
      9          1           0        3.612836   -2.392225    0.821919
     10          1           0        3.612117   -2.392142   -0.822927
     11          6           0       -1.586359   -0.280735    0.000061
     12          7           0       -3.030020   -0.060622    0.000018
     13          8           0       -3.432970    1.096631    0.000367
     14          8           0       -3.751049   -1.053507   -0.000372
     15          6           0       -1.082462   -1.588759    0.000042
     16          1           0       -1.778604   -2.417163    0.000060
     17          6           0        0.273835   -1.800827    0.000058
     18          1           0        0.682290   -2.801098    0.000097
     19          1           0        3.133220   -0.138537    0.000108
     20          1           0       -1.123522    1.810885    0.000017
 ---------------------------------------------------------------------

 SCF Done:  E(RHF) =  -747.996926854     A.U. after    8 cycles

 The electronic state is 1-A.
 Alpha  occ. eigenvalues --  -20.61606 -20.61185 -20.59999 -20.59970 -15.87184
 Alpha  occ. eigenvalues --  -15.85596 -15.64104 -15.62725 -11.35986 -11.32233
 Alpha  occ. eigenvalues --  -11.30834 -11.30502 -11.29756 -11.26620  -1.61846
 Alpha  occ. eigenvalues --   -1.60508  -1.41101  -1.39888  -1.35526  -1.22604
 Alpha  occ. eigenvalues --   -1.15063  -1.11523  -1.06877  -0.99013  -0.94853
 Alpha  occ. eigenvalues --   -0.87145  -0.84777  -0.80191  -0.77198  -0.75281
 Alpha  occ. eigenvalues --   -0.74222  -0.73939  -0.73363  -0.72738  -0.72209
 Alpha  occ. eigenvalues --   -0.72147  -0.65617  -0.65196  -0.62158  -0.57613
 Alpha  occ. eigenvalues --   -0.56752  -0.52480  -0.51355  -0.49924  -0.49654
 Alpha  occ. eigenvalues --   -0.49540  -0.47152  -0.46896  -0.45814  -0.40239
 Alpha  occ. eigenvalues --   -0.34374
 Alpha virt. eigenvalues --    0.02237   0.02272   0.03747   0.03779   0.05041
 Alpha virt. eigenvalues --    0.05074   0.06005   0.06204   0.07272   0.07441
 Alpha virt. eigenvalues --    0.07739   0.08435   0.08720   0.09299   0.09593

 Mulliken charges:
               1
     1  O   -0.435486
     2  N    0.499762
     3  C    0.111453
     4  O   -0.465743
     5  C   -0.173410
     6  C    0.260941
     7  N   -0.384200
     8  N   -0.666113
     9  H    0.323505
    10  H    0.323465
    11  C    0.099313
    12  N    0.548456
    13  O   -0.445132
    14  O   -0.450594
    15  C   -0.202026
    16  H    0.269970
    17  C   -0.179450
    18  H    0.265753
    19  H    0.395253
    20  H    0.304282
 Sum of Mulliken charges =  -0.00000

 Dipole moment (field-independent basis, Debye):
    X=              5.8797    Y=             -4.9475    Z=             -0.0007  Tot=              7.6843
 Quadrupole moment (field-independent basis, Debye-Ang):
   XX=            -89.1394   YY=            -85.3175   ZZ=            -78.0355
   XY=            -11.7980   XZ=             -0.0043   YZ=              0.0018

 Normal termination of Gaussian 09 at Thu Aug 26 00:05:36 2021.
