 Gaussian 09, Revision E.01,
 Gaussian 09:  ES64L-G09RevE.01 30-Nov-2015

 ----------------
 #P G4 OPT=calcfc
 ----------------

 ------
 WUKZIL
 ------
 Symbolic Z-matrix:
 Charge =  0 Multiplicity = 1

 SCF Done:  E(RB3LYP) =  -547.340437720     A.U. after   15 cycles
 SCF Done:  E(RB3LYP) =  -547.424541755     A.U. after   14 cycles
 SCF Done:  E(RB3LYP) =  -547.454956220     A.U. after   16 cycles
 SCF Done:  E(RB3LYP) =  -547.448394512     A.U. after   16 cycles
 SCF Done:  E(RB3LYP) =  -547.460949123     A.U. after   13 cycles
 SCF Done:  E(RB3LYP) =  -547.462784702     A.U. after   14 cycles
 SCF Done:  E(RB3LYP) =  -547.464161168     A.U. after   13 cycles
 SCF Done:  E(RB3LYP) =  -547.464335303     A.U. after   13 cycles
 SCF Done:  E(RB3LYP) =  -547.464719309     A.U. after   13 cycles
 SCF Done:  E(RB3LYP) =  -547.464947262     A.U. after   13 cycles
 SCF Done:  E(RB3LYP) =  -547.465184622     A.U. after   11 cycles
 SCF Done:  E(RB3LYP) =  -547.465187013     A.U. after   10 cycles
 SCF Done:  E(RB3LYP) =  -547.465187288     A.U. after    8 cycles
 Optimization completed.
    -- Stationary point found.
 Normal termination of Gaussian 09 at Wed Aug 25 11:52:19 2021.

 ----------------------------------------------------------
 #P Geom=AllCheck Guess=TCheck SCRF=Check B3LYP/GTBas3 Freq
 ----------------------------------------------------------

 Structure from the checkpoint file:  "/public/home/users/caep010/.cache/gau_scr/Gau-120165.chk"
 ------
 WUKZIL
 ------
 Charge =  0 Multiplicity = 1

 SCF Done:  E(RB3LYP) =  -547.465187288     A.U. after    1 cycles

  Exact polarizability: 126.405  -2.514  96.446  -2.314  -7.799  52.485
 Approx polarizability: 205.761  -7.816 170.673  -5.139 -13.905  87.082

                      1                      2                      3
                      A                      A                      A
 Frequencies --     61.1855                72.4245               125.8976
 Red. masses --      4.5674                 7.2182                 4.8341
 Frc consts  --      0.0101                 0.0223                 0.0451
 IR Inten    --      2.4011                 0.8675                 2.5018

                      4                      5                      6
                      A                      A                      A
 Frequencies --    156.4495               196.2470               284.6933
 Red. masses --      1.8437                 1.9196                 7.2533
 Frc consts  --      0.0266                 0.0436                 0.3464
 IR Inten    --      1.3347                 2.3055                 3.7493

                      7                      8                      9
                      A                      A                      A
 Frequencies --    345.2366               387.3292               397.5399
 Red. masses --      3.9908                 4.8458                 2.9011
 Frc consts  --      0.2802                 0.4283                 0.2701
 IR Inten    --      3.0911                 0.7069                 0.6828

                     10                     11                     12
                      A                      A                      A
 Frequencies --    424.8361               542.9285               635.5950
 Red. masses --      4.1733                 3.8359                 5.2840
 Frc consts  --      0.4438                 0.6662                 1.2577
 IR Inten    --      0.7881                 7.7673                25.7073

                     13                     14                     15
                      A                      A                      A
 Frequencies --    668.6678               679.0469               765.2213
 Red. masses --      6.7534                 6.9104                 3.4171
 Frc consts  --      1.7791                 1.8774                 1.1789
 IR Inten    --     13.3677                 1.7129                 0.7306

                     16                     17                     18
                      A                      A                      A
 Frequencies --    773.6907               819.7155               850.3168
 Red. masses --     13.5471                 6.1868                 1.5142
 Frc consts  --      4.7778                 2.4493                 0.6451
 IR Inten    --     13.2636                 3.5547                23.5939

                     19                     20                     21
                      A                      A                      A
 Frequencies --    880.6089               962.3112               986.3278
 Red. masses --      1.2566                 3.4437                 1.3516
 Frc consts  --      0.5742                 1.8789                 0.7747
 IR Inten    --      2.3279               114.3971                 2.6809

                     22                     23                     24
                      A                      A                      A
 Frequencies --   1004.9665              1011.0377              1094.2873
 Red. masses --      1.4587                 6.9479                 1.9469
 Frc consts  --      0.8680                 4.1844                 1.3736
 IR Inten    --      1.3441                 7.8627                 3.1667

                     25                     26                     27
                      A                      A                      A
 Frequencies --   1115.5367              1125.6473              1147.5354
 Red. masses --      1.7941                 2.2022                 1.5027
 Frc consts  --      1.3154                 1.6441                 1.1659
 IR Inten    --     18.0506                46.6614                 4.6551

                     28                     29                     30
                      A                      A                      A
 Frequencies --   1189.4183              1252.4223              1293.3522
 Red. masses --      2.1608                 1.2905                10.0762
 Frc consts  --      1.8011                 1.1926                 9.9307
 IR Inten    --     21.6433                 7.9620                 9.6631

                     31                     32                     33
                      A                      A                      A
 Frequencies --   1322.5653              1355.0463              1369.1857
 Red. masses --      7.3798                 2.3584                 1.7935
 Frc consts  --      7.6055                 2.5514                 1.9810
 IR Inten    --    400.7231                 9.4557                21.3380

                     34                     35                     36
                      A                      A                      A
 Frequencies --   1446.0439              1456.9524              1482.3382
 Red. masses --      2.0843                 1.2043                 1.0761
 Frc consts  --      2.5679                 1.5062                 1.3932
 IR Inten    --     20.9388                45.3219                20.1850

                     37                     38                     39
                      A                      A                      A
 Frequencies --   1508.2327              1530.6159              1602.0869
 Red. masses --      1.0747                 2.1902                 7.6320
 Frc consts  --      1.4404                 3.0232                11.5415
 IR Inten    --      8.1628                21.5464                25.9101

                     40                     41                     42
                      A                      A                      A
 Frequencies --   1626.6385              1663.9485              3045.8526
 Red. masses --      5.4402                12.9703                 1.0429
 Frc consts  --      8.4810                21.1583                 5.7003
 IR Inten    --     70.1330               317.5268                19.8400

                     43                     44                     45
                      A                      A                      A
 Frequencies --   3132.4022              3158.3798              3163.6928
 Red. masses --      1.0919                 1.0881                 1.0908
 Frc consts  --      6.3125                 6.3949                 6.4324
 IR Inten    --      8.1923                24.8886                15.3018

                     46                     47                     48
                      A                      A                      A
 Frequencies --   3170.0395              3208.2593              3250.0719
 Red. masses --      1.1047                 1.0926                 1.0929
 Frc consts  --      6.5406                 6.6258                 6.8019
 IR Inten    --      2.3778                 5.1120                 0.3134

 - Thermochemistry -
 -------------------
 Temperature   298.150 Kelvin.  Pressure   1.00000 Atm.
 Atom     1 has atomic number  7 and mass  14.00307

 Molecular mass:   153.05383 amu.
 Principal axes and moments of inertia in atomic units:
                           1         2         3
     Eigenvalues --   695.917562351.632192873.90305
           X            0.99978  -0.02022  -0.00604
           Y            0.02011   0.99964  -0.01799
           Z            0.00641   0.01787   0.99982
 This molecule is an asymmetric top.
 Rotational symmetry number  1.
 Warning -- assumption of classical behavior for rotation
           may cause significant error
 Rotational temperatures (Kelvin)      0.12446     0.03683     0.03014
 Rotational constants (GHZ):           2.59333     0.76744     0.62798
 Zero-point vibrational energy     357341.4 (Joules/Mol)
                                   85.40666 (Kcal/Mol)
 Warning -- explicit consideration of  11 degrees of freedom as
           vibrations may cause significant error
 Vibrational temperatures:     88.03   104.20   181.14   225.10   282.36
          (Kelvin)            409.61   496.72   557.28   571.97   611.24
                              781.15   914.48   962.06   977.00  1100.98
                             1113.17  1179.39  1223.41  1267.00  1384.55
                             1419.10  1445.92  1454.66  1574.43  1605.01
                             1619.55  1651.05  1711.31  1801.95  1860.84
                             1902.87  1949.61  1969.95  2080.53  2096.23
                             2132.75  2170.01  2202.21  2305.04  2340.37
                             2394.05  4382.30  4506.82  4544.20  4551.84
                             4560.97  4615.96  4676.12

 Zero-point correction=                           0.136104 (Hartree/Particle)
 Thermal correction to Energy=                    0.145453
 Thermal correction to Enthalpy=                  0.146397
 Thermal correction to Gibbs Free Energy=         0.100677
 Sum of electronic and zero-point Energies=           -547.329083
 Sum of electronic and thermal Energies=              -547.319735
 Sum of electronic and thermal Enthalpies=            -547.318791
 Sum of electronic and thermal Free Energies=         -547.364510

                     E (Thermal)             CV                S
                      KCal/Mol        Cal/Mol-Kelvin    Cal/Mol-Kelvin
 Total                   91.273             34.296             96.225
 Electronic               0.000              0.000              0.000
 Translational            0.889              2.981             40.987
 Rotational               0.889              2.981             29.932
 Vibrational             89.495             28.335             25.307
 Vibration     1          0.597              1.973              4.419
 Vibration     2          0.599              1.967              4.086
 Vibration     3          0.611              1.927              3.008
 Vibration     4          0.620              1.895              2.592
 Vibration     5          0.636              1.845              2.168
 Vibration     6          0.683              1.702              1.505
 Vibration     7          0.724              1.585              1.188
 Vibration     8          0.756              1.497              1.010
 Vibration     9          0.764              1.475              0.972
 Vibration    10          0.787              1.416              0.876
 Vibration    11          0.898              1.155              0.559

 Optimization completed.
    -- Stationary point found.
 Normal termination of Gaussian 09 at Wed Aug 25 11:54:15 2021.

 -----------------------------------------------------------------
 #P Geom=AllCheck Guess=TCheck SCRF=Check CCSD(T,E4T,FrzG4)/GTBas1
 -----------------------------------------------------------------

 Structure from the checkpoint file:  "/public/home/users/caep010/.cache/gau_scr/Gau-120165.chk"
 ------
 WUKZIL
 ------
 Charge =  0 Multiplicity = 1

 SCF Done:  E(RHF) =  -544.192174777     A.U. after   15 cycles
 E2 =    -0.1629391110D+01 EUMP2 =    -0.54582156588646D+03
 CCSD(T)
 CCSD(T)= -0.54592291287D+03
 DTQ=-545.9377126\MP4SDQ=-545.8527106\CCSD=-545.8497291\CCSD(T)=-545.92
 Normal termination of Gaussian 09 at Wed Aug 25 12:35:18 2021.

 ---------------------------------------------------------
 #P Geom=AllCheck Guess=TCheck SCRF=Check MP4=FrzG4/GTBas2
 ---------------------------------------------------------

 Structure from the checkpoint file:  "/public/home/users/caep010/.cache/gau_scr/Gau-120165.chk"
 ------
 WUKZIL
 ------
 Charge =  0 Multiplicity = 1

 SCF Done:  E(RHF) =  -544.206760627     A.U. after   14 cycles
 E2 =    -0.1650465466D+01 EUMP2 =    -0.54585722609282D+03
 Normal termination of Gaussian 09 at Wed Aug 25 12:47:49 2021.

 ---------------------------------------------------------
 #P Geom=AllCheck Guess=TCheck SCRF=Check MP4=FrzG4/GTBas3
 ---------------------------------------------------------

 Structure from the checkpoint file:  "/public/home/users/caep010/.cache/gau_scr/Gau-120165.chk"
 ------
 WUKZIL
 ------
 Charge =  0 Multiplicity = 1

 SCF Done:  E(RHF) =  -544.247704759     A.U. after   13 cycles
 E2 =    -0.1946285084D+01 EUMP2 =    -0.54619398984298D+03
 Normal termination of Gaussian 09 at Wed Aug 25 14:27:18 2021.

 -----------------------------------------------------------
 #P Geom=AllCheck Guess=TCheck SCRF=Check MP2=Full/GTLargeXP
 -----------------------------------------------------------

 Structure from the checkpoint file:  "/public/home/users/caep010/.cache/gau_scr/Gau-120165.chk"
 ------
 WUKZIL
 ------
 Charge =  0 Multiplicity = 1

 SCF Done:  E(RHF) =  -544.379336225     A.U. after   14 cycles
 E2 =    -0.2546082239D+01 EUMP2 =    -0.54692541846434D+03
 Normal termination of Gaussian 09 at Wed Aug 25 14:40:31 2021.
 SCF Done:  E(RHF) =  -544.422287138     A.U. after   10 cycles
 Normal termination of Gaussian 09 at Wed Aug 25 14:45:15 2021.

                         Standard orientation:
 ---------------------------------------------------------------------
 Center     Atomic      Atomic             Coordinates (Angstroms)
 Number     Number       Type             X           Y           Z
 ---------------------------------------------------------------------
      1          7           0        3.133275   -0.198997   -0.086989
      2          6           0        2.545456    0.936286   -0.465821
      3          6           0        1.175063    1.166031   -0.395920
      4          1           0        3.199763    1.712064   -0.856066
      5          6           0        0.350547    0.157210    0.107969
      6          6           0        0.951145   -1.036542    0.514937
      7          7           0       -1.039259    0.400174    0.250529
      8          7           0       -1.971395   -0.541602   -0.186754
      9          8           0       -1.562150   -1.642239   -0.517656
     10          1           0        0.363761   -1.849325    0.914549
     11          6           0       -1.570488    1.731958    0.517901
     12          1           0       -0.795888    2.293431    1.039281
     13          1           0       -1.857806    2.257231   -0.399331
     14          8           0       -3.136776   -0.170924   -0.190331
     15          6           0        2.330028   -1.155354    0.389361
     16          1           0        2.815346   -2.076813    0.701010
     17          1           0        0.766733    2.108472   -0.739170
     18          1           0       -2.449357    1.645683    1.155562
 ---------------------------------------------------------------------

 SCF Done:  E(RHF) =  -544.430618365     A.U. after    7 cycles

 The electronic state is 1-A.
 Alpha  occ. eigenvalues --  -20.60748 -20.60611 -15.89763 -15.67047 -15.57460
 Alpha  occ. eigenvalues --  -11.32681 -11.29567 -11.29003 -11.28701 -11.25966
 Alpha  occ. eigenvalues --  -11.25364  -1.63518  -1.41903  -1.32018  -1.26976
 Alpha  occ. eigenvalues --   -1.10789  -1.05262  -1.01782  -0.93319  -0.87877
 Alpha  occ. eigenvalues --   -0.82960  -0.79251  -0.76447  -0.75421  -0.71062
 Alpha  occ. eigenvalues --   -0.68714  -0.66529  -0.63651  -0.62864  -0.61423
 Alpha  occ. eigenvalues --   -0.59618  -0.56385  -0.54530  -0.52239  -0.50293
 Alpha  occ. eigenvalues --   -0.47915  -0.46776  -0.43536  -0.37440  -0.36284
 Alpha virt. eigenvalues --    0.02570   0.03698   0.03976   0.04628   0.05452
 Alpha virt. eigenvalues --    0.05620   0.06411   0.06771   0.07009   0.07772
 Alpha virt. eigenvalues --    0.08140   0.08552   0.08885   0.09579   0.09833

 Mulliken charges:
               1
     1  N   -0.543984
     2  C   -0.001874
     3  C   -0.256258
     4  H    0.222388
     5  C    0.284309
     6  C   -0.220201
     7  N    0.012265
     8  N    0.579461
     9  O   -0.428487
    10  H    0.233176
    11  C   -0.551157
    12  H    0.226157
    13  H    0.196397
    14  O   -0.434913
    15  C    0.010565
    16  H    0.223396
    17  H    0.214734
    18  H    0.234027
 Sum of Mulliken charges =  -0.00000

 Dipole moment (field-independent basis, Debye):
    X=              0.4799    Y=              3.3675    Z=              1.2903  Tot=              3.6381
 Quadrupole moment (field-independent basis, Debye-Ang):
   XX=            -80.6692   YY=            -57.7109   ZZ=            -63.8749
   XY=             -4.6715   XZ=             -2.6599   YZ=             -3.8532

 Normal termination of Gaussian 09 at Wed Aug 25 15:14:14 2021.
