 Gaussian 09, Revision E.01,
 Gaussian 09:  ES64L-G09RevE.01 30-Nov-2015

 ----------------
 #P G4 OPT=calcfc
 ----------------

 --------
 WERVEU02
 --------
 Symbolic Z-matrix:
 Charge =  0 Multiplicity = 1

 SCF Done:  E(RB3LYP) =  -752.070673846     A.U. after   15 cycles
 SCF Done:  E(RB3LYP) =  -752.071394268     A.U. after   12 cycles
 SCF Done:  E(RB3LYP) =  -752.071396257     A.U. after    9 cycles
 Optimization completed.
    -- Stationary point found.
 Normal termination of Gaussian 09 at Thu Aug 26 17:35:17 2021.

 ----------------------------------------------------------
 #P Geom=AllCheck Guess=TCheck SCRF=Check B3LYP/GTBas3 Freq
 ----------------------------------------------------------

 Structure from the checkpoint file:  "/public/home/users/caep010/.cache/gau_scr/Gau-207152.chk"
 --------
 WERVEU02
 --------
 Charge =  0 Multiplicity = 1

 SCF Done:  E(RB3LYP) =  -752.071396257     A.U. after    1 cycles

  Exact polarizability: 255.741   4.986 108.364  -0.192   0.127  47.417
 Approx polarizability: 389.658  15.865 205.782  -0.296  -0.152  77.145

                      1                      2                      3
                      A                      A                      A
 Frequencies --     33.3494                55.1428                60.9897
 Red. masses --      5.9094                 8.7439                 7.6140
 Frc consts  --      0.0039                 0.0157                 0.0167
 IR Inten    --      0.8933                 0.8410                 3.8061

                      4                      5                      6
                      A                      A                      A
 Frequencies --     83.0020               122.0095               156.2047
 Red. masses --      9.5211                 8.1258                 7.2510
 Frc consts  --      0.0386                 0.0713                 0.1042
 IR Inten    --      0.4524                 0.5569                 3.3150

                      7                      8                      9
                      A                      A                      A
 Frequencies --    207.5370               217.3535               252.5888
 Red. masses --      3.7152                 1.8561                 6.8403
 Frc consts  --      0.0943                 0.0517                 0.2571
 IR Inten    --     19.7827                82.2298                16.5170

                     10                     11                     12
                      A                      A                      A
 Frequencies --    280.0066               290.1041               371.4883
 Red. masses --      8.8920                 2.0613                 6.3506
 Frc consts  --      0.4108                 0.1022                 0.5164
 IR Inten    --      2.3299               126.9746                 0.9673

                     13                     14                     15
                      A                      A                      A
 Frequencies --    420.0397               467.9255               514.9722
 Red. masses --      4.6551                 9.5242                 1.1851
 Frc consts  --      0.4839                 1.2287                 0.1852
 IR Inten    --     14.9921                17.1768                31.9205

                     16                     17                     18
                      A                      A                      A
 Frequencies --    544.5138               558.8221               585.2435
 Red. masses --      4.6755                 2.3768                 1.3129
 Frc consts  --      0.8168                 0.4373                 0.2649
 IR Inten    --     31.6467                25.2884                37.2229

                     19                     20                     21
                      A                      A                      A
 Frequencies --    603.4942               650.6466               695.4427
 Red. masses --      5.3061                 5.8041                 4.7273
 Frc consts  --      1.1386                 1.4477                 1.3471
 IR Inten    --      0.6956                 9.9601                 0.0061

                     22                     23                     24
                      A                      A                      A
 Frequencies --    756.6882               768.2905               792.0956
 Red. masses --      9.4613                 6.7973                 4.7000
 Frc consts  --      3.1918                 2.3640                 1.7374
 IR Inten    --     16.1008                17.2601                20.2803

                     25                     26                     27
                      A                      A                      A
 Frequencies --    825.6349               825.8708               904.6895
 Red. masses --     10.3920                 1.3892                 1.3779
 Frc consts  --      4.1737                 0.5583                 0.6645
 IR Inten    --     34.2477                27.9148                 2.8929

                     28                     29                     30
                      A                      A                      A
 Frequencies --    941.0170               972.8575               989.6232
 Red. masses --      1.4902                 4.5492                 5.8526
 Frc consts  --      0.7775                 2.5368                 3.3771
 IR Inten    --     11.2284                14.9989                 6.8690

                     31                     32                     33
                      A                      A                      A
 Frequencies --   1012.8661              1040.8691              1096.3526
 Red. masses --      3.1906                 1.3211                 1.7767
 Frc consts  --      1.9285                 0.8433                 1.2582
 IR Inten    --      4.3485                58.3968                56.5891

                     34                     35                     36
                      A                      A                      A
 Frequencies --   1197.2323              1210.3305              1239.0286
 Red. masses --      4.1816                 2.0081                 3.9720
 Frc consts  --      3.5314                 1.7332                 3.5927
 IR Inten    --    103.8351                37.4157               351.4210

                     37                     38                     39
                      A                      A                      A
 Frequencies --   1286.9093              1347.6518              1386.1671
 Red. masses --      4.1169                 1.6688                 5.5725
 Frc consts  --      4.0171                 1.7857                 6.3086
 IR Inten    --     39.0583               105.2735              1145.5613

                     40                     41                     42
                      A                      A                      A
 Frequencies --   1402.2539              1418.8008              1480.3223
 Red. masses --      3.6998                 3.3252                 2.5539
 Frc consts  --      4.2863                 3.9438                 3.2974
 IR Inten    --      5.2528               106.9157               226.2203

                     43                     44                     45
                      A                      A                      A
 Frequencies --   1542.8310              1594.2808              1607.3519
 Red. masses --      5.0564                 1.2867                 7.5939
 Frc consts  --      7.0913                 1.9268                11.5595
 IR Inten    --     12.0606               260.6475                52.2378

                     46                     47                     48
                      A                      A                      A
 Frequencies --   1625.1770              1660.5539              1833.6626
 Red. masses --     11.1156                 7.9159                 8.2629
 Frc consts  --     17.2976                12.8604                16.3689
 IR Inten    --    163.1983               131.6048               516.6563

                     49                     50                     51
                      A                      A                      A
 Frequencies --   3088.2473              3274.7194              3291.1646
 Red. masses --      1.0874                 1.0940                 1.1016
 Frc consts  --      6.1101                 6.9119                 7.0304
 IR Inten    --     22.8458                 0.3411                 3.7457

                     52                     53                     54
                      A                      A                      A
 Frequencies --   3523.1985              3618.2462              3756.0473
 Red. masses --      1.0762                 1.0441                 1.1048
 Frc consts  --      7.8710                 8.0537                 9.1836
 IR Inten    --     26.3848                35.5579                94.6599

 - Thermochemistry -
 -------------------
 Temperature   298.150 Kelvin.  Pressure   1.00000 Atm.
 Atom     1 has atomic number  8 and mass  15.99491

 Molecular mass:   198.03890 amu.
 Principal axes and moments of inertia in atomic units:
                           1         2         3
     Eigenvalues --   611.815397939.280098550.72583
           X            1.00000  -0.00071  -0.00035
           Y            0.00071   1.00000   0.00217
           Z            0.00034  -0.00217   1.00000
 This molecule is an asymmetric top.
 Rotational symmetry number  1.
 Warning -- assumption of classical behavior for rotation
           may cause significant error
 Rotational temperatures (Kelvin)      0.14157     0.01091     0.01013
 Rotational constants (GHZ):           2.94981     0.22732     0.21106
 Zero-point vibrational energy     361762.1 (Joules/Mol)
                                   86.46323 (Kcal/Mol)
 Warning -- explicit consideration of  19 degrees of freedom as
           vibrations may cause significant error
 Vibrational temperatures:     47.98    79.34    87.75   119.42   175.54
          (Kelvin)            224.74   298.60   312.72   363.42   402.87
                              417.39   534.49   604.34   673.24   740.93
                              783.43   804.02   842.03   868.29   936.13
                             1000.59  1088.70  1105.40  1139.65  1187.90
                             1188.24  1301.64  1353.91  1399.72  1423.85
                             1457.29  1497.58  1577.40  1722.55  1741.39
                             1782.68  1851.57  1938.97  1994.38  2017.53
                             2041.34  2129.85  2219.79  2293.81  2312.62
                             2338.26  2389.16  2638.23  4443.29  4711.58
                             4735.25  5069.09  5205.84  5404.11

 Zero-point correction=                           0.137788 (Hartree/Particle)
 Thermal correction to Energy=                    0.150494
 Thermal correction to Enthalpy=                  0.151439
 Thermal correction to Gibbs Free Energy=         0.096887
 Sum of electronic and zero-point Energies=           -751.933608
 Sum of electronic and thermal Energies=              -751.920902
 Sum of electronic and thermal Enthalpies=            -751.919958
 Sum of electronic and thermal Free Energies=         -751.974509

                     E (Thermal)             CV                S
                      KCal/Mol        Cal/Mol-Kelvin    Cal/Mol-Kelvin
 Total                   94.437             45.678            114.814
 Electronic               0.000              0.000              0.000
 Translational            0.889              2.981             41.755
 Rotational               0.889              2.981             32.096
 Vibrational             92.659             39.717             40.962
 Vibration     1          0.594              1.983              5.620
 Vibration     2          0.596              1.976              4.624
 Vibration     3          0.597              1.973              4.425
 Vibration     4          0.600              1.961              3.819
 Vibration     5          0.610              1.931              3.068
 Vibration     6          0.620              1.896              2.595
 Vibration     7          0.641              1.829              2.065
 Vibration     8          0.646              1.815              1.981
 Vibration     9          0.664              1.758              1.712
 Vibration    10          0.680              1.711              1.534
 Vibration    11          0.686              1.692              1.473
 Vibration    12          0.743              1.531              1.074
 Vibration    13          0.783              1.427              0.892
 Vibration    14          0.825              1.321              0.743
 Vibration    15          0.870              1.217              0.622
 Vibration    16          0.900              1.152              0.556
 Vibration    17          0.914              1.120              0.526
 Vibration    18          0.942              1.063              0.476
 Vibration    19          0.962              1.024              0.444

 Optimization completed.
    -- Stationary point found.
 Normal termination of Gaussian 09 at Thu Aug 26 17:38:15 2021.

 -----------------------------------------------------------------
 #P Geom=AllCheck Guess=TCheck SCRF=Check CCSD(T,E4T,FrzG4)/GTBas1
 -----------------------------------------------------------------

 Structure from the checkpoint file:  "/public/home/users/caep010/.cache/gau_scr/Gau-207152.chk"
 --------
 WERVEU02
 --------
 Charge =  0 Multiplicity = 1

 SCF Done:  E(RHF) =  -747.767901302     A.U. after   15 cycles
 E2 =    -0.2140067985D+01 EUMP2 =    -0.74990796928641D+03
 CCSD(T)
 CCSD(T)= -0.75002246425D+03
 CCSD=-749.9321789\CCSD(T)=-750.0224642\RMSD=5.121e-09\PG=C01 [X(C6H6N4
 Normal termination of Gaussian 09 at Thu Aug 26 19:57:14 2021.

 ---------------------------------------------------------
 #P Geom=AllCheck Guess=TCheck SCRF=Check MP4=FrzG4/GTBas2
 ---------------------------------------------------------

 Structure from the checkpoint file:  "/public/home/users/caep010/.cache/gau_scr/Gau-207152.chk"
 --------
 WERVEU02
 --------
 Charge =  0 Multiplicity = 1

 SCF Done:  E(RHF) =  -747.789820170     A.U. after   15 cycles
 E2 =    -0.2169807843D+01 EUMP2 =    -0.74995962801325D+03
 Normal termination of Gaussian 09 at Thu Aug 26 20:51:00 2021.

 ---------------------------------------------------------
 #P Geom=AllCheck Guess=TCheck SCRF=Check MP4=FrzG4/GTBas3
 ---------------------------------------------------------

 Structure from the checkpoint file:  "/public/home/users/caep010/.cache/gau_scr/Gau-207152.chk"
 --------
 WERVEU02
 --------
 Charge =  0 Multiplicity = 1

 SCF Done:  E(RHF) =  -747.847762211     A.U. after   13 cycles
 E2 =    -0.2555778831D+01 EUMP2 =    -0.75040354104162D+03
 Normal termination of Gaussian 09 at Fri Aug 27 04:39:58 2021.

 -----------------------------------------------------------
 #P Geom=AllCheck Guess=TCheck SCRF=Check MP2=Full/GTLargeXP
 -----------------------------------------------------------

 Structure from the checkpoint file:  "/public/home/users/caep010/.cache/gau_scr/Gau-207152.chk"
 --------
 WERVEU02
 --------
 Charge =  0 Multiplicity = 1

 SCF Done:  E(RHF) =  -748.040725276     A.U. after   14 cycles
 E2 =    -0.3338643031D+01 EUMP2 =    -0.75137936830685D+03
 Normal termination of Gaussian 09 at Fri Aug 27 04:53:20 2021.
 SCF Done:  E(RHF) =  -748.099817497     A.U. after    9 cycles
 Normal termination of Gaussian 09 at Fri Aug 27 04:59:15 2021.

                         Standard orientation:
 ---------------------------------------------------------------------
 Center     Atomic      Atomic             Coordinates (Angstroms)
 Number     Number       Type             X           Y           Z
 ---------------------------------------------------------------------
      1          8           0        1.577532   -0.653113   -0.003139
      2          6           0        2.614593    0.208195    0.001042
      3          6           0        2.194145    1.508585    0.003406
      4          1           0        2.832531    2.375885    0.006438
      5          6           0        0.780988    1.445239    0.000529
      6          1           0        0.084581    2.267472   -0.000166
      7          6           0        0.448125    0.107529   -0.003378
      8          7           0        3.929418   -0.342894    0.002266
      9          8           0        4.850701    0.471918    0.006281
     10          8           0        4.042457   -1.562712   -0.000609
     11          6           0       -0.790147   -0.623753   -0.008394
     12          7           0       -1.917503   -0.003857   -0.001983
     13          7           0       -3.044430   -0.721638   -0.006341
     14          1           0       -3.036654   -1.737563   -0.006639
     15          6           0       -4.320744   -0.136561    0.001323
     16          1           0       -0.713532   -1.714433   -0.018317
     17          8           0       -5.304046   -0.846496    0.022691
     18          7           0       -4.312993    1.221085   -0.041682
     19          1           0       -3.450739    1.723726    0.079938
     20          1           0       -5.192537    1.683853    0.103963
 ---------------------------------------------------------------------

 SCF Done:  E(RHF) =  -748.111479637     A.U. after    8 cycles

 The electronic state is 1-A.
 Alpha  occ. eigenvalues --  -20.67775 -20.61144 -20.60524 -20.52932 -15.86825
 Alpha  occ. eigenvalues --  -15.66514 -15.64670 -15.59678 -11.40091 -11.36882
 Alpha  occ. eigenvalues --  -11.35512 -11.32182 -11.29678 -11.27757  -1.61625
 Alpha  occ. eigenvalues --   -1.52126  -1.42770  -1.40734  -1.36860  -1.23458
 Alpha  occ. eigenvalues --   -1.16725  -1.14873  -1.10774  -0.99757  -0.90676
 Alpha  occ. eigenvalues --   -0.85978  -0.85093  -0.81595  -0.80375  -0.77282
 Alpha  occ. eigenvalues --   -0.74669  -0.74554  -0.72951  -0.71115  -0.68351
 Alpha  occ. eigenvalues --   -0.68140  -0.65262  -0.63356  -0.63100  -0.62298
 Alpha  occ. eigenvalues --   -0.60463  -0.56281  -0.51340  -0.50663  -0.50461
 Alpha  occ. eigenvalues --   -0.46542  -0.46500  -0.45193  -0.43951  -0.42651
 Alpha  occ. eigenvalues --   -0.33372
 Alpha virt. eigenvalues --    0.01215   0.02328   0.03324   0.03627   0.03918
 Alpha virt. eigenvalues --    0.04992   0.05458   0.05540   0.06410   0.06493
 Alpha virt. eigenvalues --    0.07029   0.07143   0.08014   0.08482   0.08832

 Mulliken charges:
               1
     1  O   -0.381505
     2  C    0.265130
     3  C   -0.087424
     4  H    0.271895
     5  C   -0.229804
     6  H    0.232808
     7  C    0.475950
     8  N    0.473872
     9  O   -0.446127
    10  O   -0.410906
    11  C   -0.276127
    12  N   -0.137902
    13  N   -0.315653
    14  H    0.366263
    15  C    0.666340
    16  H    0.201959
    17  O   -0.667128
    18  N   -0.713949
    19  H    0.346064
    20  H    0.366245
 Sum of Mulliken charges =  -0.00000

 Dipole moment (field-independent basis, Debye):
    X=             -1.9969    Y=              3.8691    Z=              0.3443  Tot=              4.3676
 Quadrupole moment (field-independent basis, Debye-Ang):
   XX=           -126.9339   YY=            -71.0373   ZZ=            -80.7434
   XY=             -4.5108   XZ=             -1.6114   YZ=              0.9022

 Normal termination of Gaussian 09 at Fri Aug 27 05:43:03 2021.
