 Gaussian 09, Revision E.01,
 Gaussian 09:  ES64L-G09RevE.01 30-Nov-2015

 ----------------
 #P G4 OPT=calcfc
 ----------------

 ------
 WIGTOX
 ------
 Symbolic Z-matrix:
 Charge =  0 Multiplicity = 1

 SCF Done:  E(RB3LYP) =  -661.901464965     A.U. after   15 cycles
 SCF Done:  E(RB3LYP) =  -661.989785153     A.U. after   12 cycles
 SCF Done:  E(RB3LYP) =  -662.035264473     A.U. after   16 cycles
 SCF Done:  E(RB3LYP) =  -662.036352257     A.U. after   13 cycles
 SCF Done:  E(RB3LYP) =  -662.036750131     A.U. after   16 cycles
 SCF Done:  E(RB3LYP) =  -662.036418025     A.U. after   14 cycles
 SCF Done:  E(RB3LYP) =  -662.036865292     A.U. after   11 cycles
 SCF Done:  E(RB3LYP) =  -662.034884599     A.U. after   14 cycles
 SCF Done:  E(RB3LYP) =  -662.036908352     A.U. after    9 cycles
 SCF Done:  E(RB3LYP) =  -662.036928265     A.U. after   12 cycles
 SCF Done:  E(RB3LYP) =  -662.036931296     A.U. after   11 cycles
 SCF Done:  E(RB3LYP) =  -662.036931644     A.U. after    8 cycles
 SCF Done:  E(RB3LYP) =  -662.036931778     A.U. after    8 cycles
 Optimization completed.
    -- Stationary point found.
 Normal termination of Gaussian 09 at Wed Aug 25 11:54:00 2021.

 ----------------------------------------------------------
 #P Geom=AllCheck Guess=TCheck SCRF=Check B3LYP/GTBas3 Freq
 ----------------------------------------------------------

 Structure from the checkpoint file:  "/public/home/users/caep010/.cache/gau_scr/Gau-54241.chk"
 ------
 WIGTOX
 ------
 Charge =  0 Multiplicity = 1

 SCF Done:  E(RB3LYP) =  -662.036931778     A.U. after    1 cycles

  Exact polarizability: 118.893   3.191 127.658  11.751  -0.788  71.400
 Approx polarizability: 191.739   8.813 209.450  30.978   3.497 124.669

                      1                      2                      3
                      A                      A                      A
 Frequencies --     28.4321                49.2750                66.5541
 Red. masses --      7.2640                 3.6441                 8.1799
 Frc consts  --      0.0035                 0.0052                 0.0213
 IR Inten    --      2.2272                 3.5236                 0.9270

                      4                      5                      6
                      A                      A                      A
 Frequencies --     99.0129               119.4888               147.1174
 Red. masses --      6.0141                 5.3029                 1.0488
 Frc consts  --      0.0347                 0.0446                 0.0134
 IR Inten    --      0.0959                 0.4216                 0.1734

                      7                      8                      9
                      A                      A                      A
 Frequencies --    164.7817               219.3577               277.4432
 Red. masses --      1.0382                 4.9986                 4.6148
 Frc consts  --      0.0166                 0.1417                 0.2093
 IR Inten    --      0.1982                 4.3387                 5.1244

                     10                     11                     12
                      A                      A                      A
 Frequencies --    288.2716               323.5226               350.0929
 Red. masses --      4.6836                 4.4543                 2.5658
 Frc consts  --      0.2293                 0.2747                 0.1853
 IR Inten    --      4.1522                 3.4781                 2.7176

                     13                     14                     15
                      A                      A                      A
 Frequencies --    387.8756               438.0449               467.9786
 Red. masses --      4.8445                 5.5498                 2.0505
 Frc consts  --      0.4294                 0.6274                 0.2646
 IR Inten    --      1.3275                 1.9365                 0.3746

                     16                     17                     18
                      A                      A                      A
 Frequencies --    560.2697               587.5830               620.9596
 Red. masses --      3.9349                 4.9104                 4.4858
 Frc consts  --      0.7277                 0.9989                 1.0191
 IR Inten    --     19.6345                 5.4754                 0.9792

                     19                     20                     21
                      A                      A                      A
 Frequencies --    689.6487               703.2043               774.8101
 Red. masses --      4.5053                 4.4763                 8.8452
 Frc consts  --      1.2625                 1.3042                 3.1286
 IR Inten    --      4.6445                 3.7697                11.5386

                     22                     23                     24
                      A                      A                      A
 Frequencies --    797.7615               803.4401               841.0592
 Red. masses --      3.0028                 4.1483                10.4527
 Frc consts  --      1.1260                 1.5777                 4.3565
 IR Inten    --      1.7817                 3.1396                25.7446

                     25                     26                     27
                      A                      A                      A
 Frequencies --    858.3020               903.7914               977.8581
 Red. masses --      1.7709                 1.4578                 2.7509
 Frc consts  --      0.7686                 0.7016                 1.5498
 IR Inten    --      4.7775                 5.8421                 7.1994

                     28                     29                     30
                      A                      A                      A
 Frequencies --    987.1922              1011.2969              1062.0292
 Red. masses --      2.0705                 1.6241                 1.5496
 Frc consts  --      1.1888                 0.9786                 1.0298
 IR Inten    --     14.1492                 4.4177                 2.8517

                     31                     32                     33
                      A                      A                      A
 Frequencies --   1092.0920              1178.7089              1188.7227
 Red. masses --      2.4737                 1.8555                 2.3701
 Frc consts  --      1.7383                 1.5189                 1.9733
 IR Inten    --      0.2463                30.6925                87.2723

                     34                     35                     36
                      A                      A                      A
 Frequencies --   1228.8355              1250.6734              1305.9324
 Red. masses --      3.7655                 1.6918                 4.8825
 Frc consts  --      3.3501                 1.5591                 4.9061
 IR Inten    --     76.3303                19.5956               107.1852

                     37                     38                     39
                      A                      A                      A
 Frequencies --   1368.8669              1382.4456              1385.8715
 Red. masses --      1.3533                 1.4857                 2.2879
 Frc consts  --      1.4941                 1.6729                 2.5890
 IR Inten    --     23.5195                38.3615                24.8865

                     40                     41                     42
                      A                      A                      A
 Frequencies --   1398.2497              1415.8538              1454.4511
 Red. masses --      2.0301                 2.6059                 1.2056
 Frc consts  --      2.3385                 3.0778                 1.5026
 IR Inten    --     97.4513               101.9448                35.2431

                     43                     44                     45
                      A                      A                      A
 Frequencies --   1464.3848              1465.2052              1474.2705
 Red. masses --      1.1860                 1.4714                 1.0557
 Frc consts  --      1.4984                 1.8612                 1.3520
 IR Inten    --     26.1776               105.4825                 4.8893

                     46                     47                     48
                      A                      A                      A
 Frequencies --   1484.4113              1505.2614              1512.3535
 Red. masses --      1.0565                 2.4283                 5.6120
 Frc consts  --      1.3716                 3.2418                 7.5626
 IR Inten    --     12.0099                65.3022               157.8360

                     49                     50                     51
                      A                      A                      A
 Frequencies --   1555.0964              1600.5710              1832.8081
 Red. masses --      5.0763                11.3522                10.8841
 Frc consts  --      7.2328                17.1348                21.5415
 IR Inten    --     23.1882               216.4750               103.4818

                     52                     53                     54
                      A                      A                      A
 Frequencies --   3036.5130              3037.7117              3069.8383
 Red. masses --      1.0403                 1.0369                 1.0657
 Frc consts  --      5.6515                 5.6374                 5.9174
 IR Inten    --     11.3152                 1.3839                13.9215

                     55                     56                     57
                      A                      A                      A
 Frequencies --   3093.4925              3100.7879              3148.7479
 Red. masses --      1.0991                 1.0983                 1.0961
 Frc consts  --      6.1971                 6.2219                 6.4031
 IR Inten    --      6.8511                 5.5393                 1.2692

                     58                     59                     60
                      A                      A                      A
 Frequencies --   3156.7173              3158.3423              3275.3485
 Red. masses --      1.0977                 1.1018                 1.0979
 Frc consts  --      6.4445                 6.4754                 6.9397
 IR Inten    --      1.5647                 5.8145                 1.0798

 - Thermochemistry -
 -------------------
 Temperature   298.150 Kelvin.  Pressure   1.00000 Atm.
 Atom     1 has atomic number  8 and mass  15.99491

 Molecular mass:   183.06439 amu.
 Principal axes and moments of inertia in atomic units:
                           1         2         3
     Eigenvalues --  1897.473792112.128533564.92456
           X            0.99569   0.09141   0.01536
           Y           -0.09122   0.99575  -0.01235
           Z           -0.01643   0.01089   0.99981
 This molecule is an asymmetric top.
 Rotational symmetry number  1.
 Warning -- assumption of classical behavior for rotation
           may cause significant error
 Rotational temperatures (Kelvin)      0.04565     0.04101     0.02430
 Rotational constants (GHZ):           0.95113     0.85447     0.50625
 Zero-point vibrational energy     438006.8 (Joules/Mol)
                                  104.68614 (Kcal/Mol)
 Warning -- explicit consideration of  17 degrees of freedom as
           vibrations may cause significant error
 Vibrational temperatures:     40.91    70.90    95.76   142.46   171.92
          (Kelvin)            211.67   237.08   315.61   399.18   414.76
                              465.48   503.71   558.07   630.25   673.32
                              806.10   845.40   893.42   992.25  1011.75
                             1114.78  1147.80  1155.97  1210.10  1234.90
                             1300.35  1406.92  1420.35  1455.03  1528.02
                             1571.27  1695.90  1710.30  1768.02  1799.44
                             1878.94  1969.49  1989.03  1993.96  2011.77
                             2037.10  2092.63  2106.92  2108.10  2121.14
                             2135.73  2165.73  2175.94  2237.43  2302.86
                             2637.00  4368.86  4370.58  4416.81  4450.84
                             4461.34  4530.34  4541.81  4544.14  4712.49

 Zero-point correction=                           0.166828 (Hartree/Particle)
 Thermal correction to Energy=                    0.179374
 Thermal correction to Enthalpy=                  0.180318
 Thermal correction to Gibbs Free Energy=         0.126445
 Sum of electronic and zero-point Energies=           -661.870104
 Sum of electronic and thermal Energies=              -661.857558
 Sum of electronic and thermal Enthalpies=            -661.856614
 Sum of electronic and thermal Free Energies=         -661.910487

                     E (Thermal)             CV                S
                      KCal/Mol        Cal/Mol-Kelvin    Cal/Mol-Kelvin
 Total                  112.559             44.612            113.385
 Electronic               0.000              0.000              0.000
 Translational            0.889              2.981             41.520
 Rotational               0.889              2.981             31.036
 Vibrational            110.781             38.651             40.829
 Vibration     1          0.593              1.984              5.936
 Vibration     2          0.595              1.978              4.846
 Vibration     3          0.598              1.970              4.253
 Vibration     4          0.604              1.950              3.474
 Vibration     5          0.609              1.933              3.109
 Vibration     6          0.617              1.906              2.709
 Vibration     7          0.623              1.886              2.494
 Vibration     8          0.647              1.812              1.964
 Vibration     9          0.678              1.715              1.549
 Vibration    10          0.685              1.696              1.484
 Vibration    11          0.708              1.628              1.292
 Vibration    12          0.727              1.575              1.166
 Vibration    13          0.756              1.496              1.008
 Vibration    14          0.798              1.387              0.833
 Vibration    15          0.825              1.321              0.743
 Vibration    16          0.916              1.117              0.523
 Vibration    17          0.945              1.058              0.472

 Normal termination of Gaussian 09 at Wed Aug 25 11:57:18 2021.

 -----------------------------------------------------------------
 #P Geom=AllCheck Guess=TCheck SCRF=Check CCSD(T,E4T,FrzG4)/GTBas1
 -----------------------------------------------------------------

 Structure from the checkpoint file:  "/public/home/users/caep010/.cache/gau_scr/Gau-54241.chk"
 ------
 WIGTOX
 ------
 Charge =  0 Multiplicity = 1

 SCF Done:  E(RHF) =  -658.118428857     A.U. after   15 cycles
 E2 =    -0.1941145020D+01 EUMP2 =    -0.66005957387664D+03
 CCSD(T)
 CCSD(T)= -0.66018221545D+03
 CCSD=-660.0999202\CCSD(T)=-660.1822155\RMSD=6.134e-09\PG=C01 [X(C7H9N3
 Normal termination of Gaussian 09 at Wed Aug 25 13:40:33 2021.

 ---------------------------------------------------------
 #P Geom=AllCheck Guess=TCheck SCRF=Check MP4=FrzG4/GTBas2
 ---------------------------------------------------------

 Structure from the checkpoint file:  "/public/home/users/caep010/.cache/gau_scr/Gau-54241.chk"
 ------
 WIGTOX
 ------
 Charge =  0 Multiplicity = 1

 SCF Done:  E(RHF) =  -658.135524063     A.U. after   14 cycles
 E2 =    -0.1967735849D+01 EUMP2 =    -0.66010325991185D+03
 Normal termination of Gaussian 09 at Wed Aug 25 14:22:25 2021.

 ---------------------------------------------------------
 #P Geom=AllCheck Guess=TCheck SCRF=Check MP4=FrzG4/GTBas3
 ---------------------------------------------------------

 Structure from the checkpoint file:  "/public/home/users/caep010/.cache/gau_scr/Gau-54241.chk"
 ------
 WIGTOX
 ------
 Charge =  0 Multiplicity = 1

 SCF Done:  E(RHF) =  -658.185981922     A.U. after   12 cycles
 E2 =    -0.2329846564D+01 EUMP2 =    -0.66051582848625D+03
 Normal termination of Gaussian 09 at Wed Aug 25 20:16:04 2021.

 -----------------------------------------------------------
 #P Geom=AllCheck Guess=TCheck SCRF=Check MP2=Full/GTLargeXP
 -----------------------------------------------------------

 Structure from the checkpoint file:  "/public/home/users/caep010/.cache/gau_scr/Gau-54241.chk"
 ------
 WIGTOX
 ------
 Charge =  0 Multiplicity = 1

 SCF Done:  E(RHF) =  -658.347477412     A.U. after   14 cycles
 E2 =    -0.3045888532D+01 EUMP2 =    -0.66139336594457D+03
 Normal termination of Gaussian 09 at Wed Aug 25 20:30:04 2021.
 SCF Done:  E(RHF) =  -658.398263399     A.U. after   10 cycles
 Normal termination of Gaussian 09 at Wed Aug 25 20:37:56 2021.

                         Standard orientation:
 ---------------------------------------------------------------------
 Center     Atomic      Atomic             Coordinates (Angstroms)
 Number     Number       Type             X           Y           Z
 ---------------------------------------------------------------------
      1          8           0        1.623482   -2.735164    0.147648
      2          7           0        0.757991   -1.910889   -0.124749
      3          8           0       -0.403480   -2.195135   -0.446132
      4          6           0        1.125252   -0.544612   -0.055520
      5          6           0        2.313486    0.001650    0.371701
      6          7           0        2.238000    1.354661    0.327566
      7          7           0        0.296520    0.517230   -0.391123
      8          6           0       -1.080344    0.465281   -0.840573
      9          1           0       -1.194797   -0.298237   -1.608281
     10          1           0       -1.332179    1.433853   -1.284467
     11          6           0       -2.056513    0.209728    0.323383
     12          8           0       -1.734975    0.454531    1.458502
     13          1           0        3.189624   -0.530229    0.705788
     14          6           0        1.019772    1.640315   -0.121020
     15          6           0        0.498589    3.024297   -0.303194
     16          1           0        1.280488    3.720702    0.000040
     17          1           0       -0.388158    3.200991    0.314380
     18          1           0        0.234489    3.233402   -1.346132
     19          6           0       -3.407148   -0.334494   -0.074511
     20          1           0       -3.817480    0.206809   -0.934242
     21          1           0       -4.096097   -0.281167    0.768672
     22          1           0       -3.282245   -1.379988   -0.379361
 ---------------------------------------------------------------------

 SCF Done:  E(RHF) =  -658.408391278     A.U. after    7 cycles

 The electronic state is 1-A.
 Alpha  occ. eigenvalues --  -20.60035 -20.59857 -20.56629 -15.86192 -15.65542
 Alpha  occ. eigenvalues --  -15.56934 -11.35527 -11.34227 -11.32278 -11.31261
 Alpha  occ. eigenvalues --  -11.29488 -11.25993 -11.25137  -1.60504  -1.41619
 Alpha  occ. eigenvalues --   -1.39751  -1.38098  -1.22277  -1.12264  -1.05996
 Alpha  occ. eigenvalues --   -1.03297  -0.99017  -0.93160  -0.83301  -0.81456
 Alpha  occ. eigenvalues --   -0.79088  -0.75393  -0.73053  -0.72421  -0.69657
 Alpha  occ. eigenvalues --   -0.69198  -0.66458  -0.63427  -0.63099  -0.61151
 Alpha  occ. eigenvalues --   -0.59504  -0.58909  -0.58017  -0.57258  -0.56506
 Alpha  occ. eigenvalues --   -0.51609  -0.50796  -0.49865  -0.46400  -0.46083
 Alpha  occ. eigenvalues --   -0.45001  -0.41481  -0.35125
 Alpha virt. eigenvalues --    0.01805   0.03147   0.03523   0.04161   0.04224
 Alpha virt. eigenvalues --    0.05308   0.05681   0.05901   0.06552   0.06820
 Alpha virt. eigenvalues --    0.07799   0.08107   0.08264   0.08646   0.08763

 Mulliken charges:
               1
     1  O   -0.434949
     2  N    0.481917
     3  O   -0.455950
     4  C    0.113898
     5  C   -0.012842
     6  N   -0.535532
     7  N    0.048112
     8  C   -0.369826
     9  H    0.247387
    10  H    0.229171
    11  C    0.519877
    12  O   -0.536808
    13  H    0.270711
    14  C    0.421215
    15  C   -0.664207
    16  H    0.233655
    17  H    0.224660
    18  H    0.199020
    19  C   -0.610019
    20  H    0.187086
    21  H    0.216703
    22  H    0.226719
 Sum of Mulliken charges =  -0.00000

 Dipole moment (field-independent basis, Debye):
    X=             -3.1655    Y=              3.9262    Z=             -3.5425  Tot=              6.1632
 Quadrupole moment (field-independent basis, Debye-Ang):
   XX=            -72.1151   YY=            -82.2614   ZZ=            -78.3508
   XY=             -1.2807   XZ=              4.8333   YZ=             -4.3327

 Normal termination of Gaussian 09 at Wed Aug 25 21:24:26 2021.
