 Gaussian 09, Revision E.01,
 Gaussian 09:  ES64L-G09RevE.01 30-Nov-2015

 ----------------
 #P G4 OPT=calcfc
 ----------------

 ------
 WOQXOR
 ------
 Symbolic Z-matrix:
 Charge =  0 Multiplicity = 1

 SCF Done:  E(RB3LYP) =  -680.537536411     A.U. after   15 cycles
 SCF Done:  E(RB3LYP) =  -680.624348823     A.U. after   13 cycles
 SCF Done:  E(RB3LYP) =  -680.654889185     A.U. after   15 cycles
 SCF Done:  E(RB3LYP) =  -680.656345965     A.U. after   14 cycles
 SCF Done:  E(RB3LYP) =  -680.656581806     A.U. after   13 cycles
 SCF Done:  E(RB3LYP) =  -680.656639588     A.U. after   11 cycles
 SCF Done:  E(RB3LYP) =  -680.656658529     A.U. after    9 cycles
 SCF Done:  E(RB3LYP) =  -680.656660943     A.U. after    9 cycles
 SCF Done:  E(RB3LYP) =  -680.656661070     A.U. after    8 cycles
 Optimization completed.
    -- Stationary point found.
 Normal termination of Gaussian 09 at Tue Aug 24 23:38:18 2021.

 ----------------------------------------------------------
 #P Geom=AllCheck Guess=TCheck SCRF=Check B3LYP/GTBas3 Freq
 ----------------------------------------------------------

 Structure from the checkpoint file:  "/public/home/users/caep010/.cache/gau_scr/Gau-196615.chk"
 ------
 WOQXOR
 ------
 Charge =  0 Multiplicity = 1

 SCF Done:  E(RB3LYP) =  -680.656661070     A.U. after    1 cycles

  Exact polarizability: 187.876  -1.745 116.881   0.001  -0.001  43.928
 Approx polarizability: 309.673   0.658 224.109   0.002  -0.002  72.917

                      1                      2                      3
                      A                      A                      A
 Frequencies --     64.6137                92.6286               115.6084
 Red. masses --      7.0931                 6.2802                 7.0207
 Frc consts  --      0.0174                 0.0317                 0.0553
 IR Inten    --      0.0160                 0.4098                 2.2484

                      4                      5                      6
                      A                      A                      A
 Frequencies --    136.1514               168.6838               245.5859
 Red. masses --      5.3853                 4.5062                 8.8008
 Frc consts  --      0.0588                 0.0755                 0.3127
 IR Inten    --      0.0077                 0.6777                 0.7024

                      7                      8                      9
                      A                      A                      A
 Frequencies --    266.1802               341.3842               366.5299
 Red. masses --      8.2533                 9.6427                 7.5376
 Frc consts  --      0.3445                 0.6621                 0.5966
 IR Inten    --      1.6905                 0.5774                 9.0989

                     10                     11                     12
                      A                      A                      A
 Frequencies --    394.4326               434.7217               440.8662
 Red. masses --      4.0965                 1.1421                 7.1795
 Frc consts  --      0.3755                 0.1272                 0.8222
 IR Inten    --      5.3710               116.2996                 1.4050

                     13                     14                     15
                      A                      A                      A
 Frequencies --    445.4410               449.2390               571.5899
 Red. masses --      7.0414                 4.1001                 5.7128
 Frc consts  --      0.8232                 0.4875                 1.0997
 IR Inten    --      1.5540                 0.0923                10.2008

                     16                     17                     18
                      A                      A                      A
 Frequencies --    583.7701               631.2049               720.4367
 Red. masses --      3.0589                 7.1504                 7.9619
 Frc consts  --      0.6142                 1.6785                 2.4348
 IR Inten    --     13.1668                28.5736                42.8286

                     19                     20                     21
                      A                      A                      A
 Frequencies --    726.5461               784.6665               810.4208
 Red. masses --      4.4345                 2.6385                 1.4819
 Frc consts  --      1.3792                 0.9571                 0.5734
 IR Inten    --      1.0631                 4.7766                87.0462

                     22                     23                     24
                      A                      A                      A
 Frequencies --    833.5906               849.3046               871.2015
 Red. masses --      5.3511                 7.5568                 1.4845
 Frc consts  --      2.1908                 3.2116                 0.6638
 IR Inten    --      1.6666                 9.7156                15.9562

                     25                     26                     27
                      A                      A                      A
 Frequencies --    925.9209               947.8487               992.3667
 Red. masses --      1.4506                 3.9152                 1.4230
 Frc consts  --      0.7327                 2.0724                 0.8257
 IR Inten    --      2.5263                 4.0302                 7.7219

                     28                     29                     30
                      A                      A                      A
 Frequencies --   1004.2199              1028.6669              1097.5661
 Red. masses --      1.3857                10.6903                 2.6043
 Frc consts  --      0.8233                 6.6648                 1.8485
 IR Inten    --      2.4597               237.7017                29.7220

                     31                     32                     33
                      A                      A                      A
 Frequencies --   1158.5831              1217.6572              1267.5388
 Red. masses --      1.3319                 1.5383                 1.9397
 Frc consts  --      1.0533                 1.3438                 1.8361
 IR Inten    --     24.0573               113.3376                15.7046

                     34                     35                     36
                      A                      A                      A
 Frequencies --   1294.2747              1306.1941              1333.3999
 Red. masses --      1.7909                 3.4792                 2.2043
 Frc consts  --      1.7675                 3.4974                 2.3091
 IR Inten    --    128.1898               142.6806               122.6223

                     37                     38                     39
                      A                      A                      A
 Frequencies --   1363.5898              1431.2298              1452.0151
 Red. masses --      3.4683                 3.0727                 1.9286
 Frc consts  --      3.7996                 3.7084                 2.3958
 IR Inten    --    176.0886                40.2506                20.5279

                     40                     41                     42
                      A                      A                      A
 Frequencies --   1473.3623              1537.0985              1599.8976
 Red. masses --      2.3446                 3.9774                 8.8565
 Frc consts  --      2.9987                 5.5367                13.3566
 IR Inten    --     84.8682               160.7875               232.8734

                     43                     44                     45
                      A                      A                      A
 Frequencies --   1624.6832              1675.2521              1701.2795
 Red. masses --      3.5467                 6.7426                 6.6832
 Frc consts  --      5.5158                11.1490                11.3968
 IR Inten    --      7.0515               144.8510                 3.8387

                     46                     47                     48
                      A                      A                      A
 Frequencies --   3106.2298              3201.5158              3215.2668
 Red. masses --      1.0887                 1.0870                 1.0950
 Frc consts  --      6.1888                 6.5645                 6.6698
 IR Inten    --     14.0180                 0.5162                 1.6685

                     49                     50                     51
                      A                      A                      A
 Frequencies --   3221.8418              3375.3822              3813.5532
 Red. masses --      1.0901                 1.0657                 1.0676
 Frc consts  --      6.6668                 7.1540                 9.1480
 IR Inten    --      3.4367               287.2792               136.3095

 - Thermochemistry -
 -------------------
 Temperature   298.150 Kelvin.  Pressure   1.00000 Atm.
 Atom     1 has atomic number  6 and mass  12.00000

 Molecular mass:   182.03276 amu.
 Principal axes and moments of inertia in atomic units:
                           1         2         3
     Eigenvalues --  1030.869974246.162745277.03271
           X            0.99998   0.00574   0.00000
           Y           -0.00574   0.99998  -0.00000
           Z           -0.00000   0.00000   1.00000
 This molecule is an asymmetric top.
 Rotational symmetry number  1.
 Warning -- assumption of classical behavior for rotation
           may cause significant error
 Rotational temperatures (Kelvin)      0.08402     0.02040     0.01641
 Rotational constants (GHZ):           1.75070     0.42503     0.34200
 Zero-point vibrational energy     351171.2 (Joules/Mol)
                                   83.93192 (Kcal/Mol)
 Warning -- explicit consideration of  16 degrees of freedom as
           vibrations may cause significant error
 Vibrational temperatures:     92.96   133.27   166.33   195.89   242.70
          (Kelvin)            353.34   382.97   491.18   527.35   567.50
                              625.47   634.31   640.89   646.35   822.39
                              839.91   908.16  1036.55  1045.34  1128.96
                             1166.01  1199.35  1221.96  1253.46  1332.19
                             1363.74  1427.79  1444.85  1480.02  1579.15
                             1666.94  1751.93  1823.70  1862.17  1879.32
                             1918.46  1961.90  2059.22  2089.12  2119.84
                             2211.54  2301.89  2337.55  2410.31  2447.76
                             4469.17  4606.26  4626.05  4635.51  4856.42
                             5486.85

 Zero-point correction=                           0.133754 (Hartree/Particle)
 Thermal correction to Energy=                    0.144589
 Thermal correction to Enthalpy=                  0.145533
 Thermal correction to Gibbs Free Energy=         0.096551
 Sum of electronic and zero-point Energies=           -680.522907
 Sum of electronic and thermal Energies=              -680.512072
 Sum of electronic and thermal Enthalpies=            -680.511128
 Sum of electronic and thermal Free Energies=         -680.560110

                     E (Thermal)             CV                S
                      KCal/Mol        Cal/Mol-Kelvin    Cal/Mol-Kelvin
 Total                   90.731             40.908            103.091
 Electronic               0.000              0.000              0.000
 Translational            0.889              2.981             41.504
 Rotational               0.889              2.981             31.513
 Vibrational             88.953             34.946             30.074
 Vibration     1          0.597              1.971              4.311
 Vibration     2          0.602              1.954              3.604
 Vibration     3          0.608              1.936              3.173
 Vibration     4          0.614              1.917              2.857
 Vibration     5          0.625              1.881              2.450
 Vibration     6          0.660              1.770              1.762
 Vibration     7          0.672              1.735              1.621
 Vibration     8          0.721              1.593              1.206
 Vibration     9          0.739              1.541              1.094
 Vibration    10          0.761              1.482              0.983
 Vibration    11          0.795              1.395              0.843
 Vibration    12          0.801              1.381              0.824
 Vibration    13          0.805              1.371              0.810
 Vibration    14          0.808              1.363              0.798
 Vibration    15          0.928              1.093              0.501
 Vibration    16          0.941              1.066              0.478

 Optimization completed.
    -- Stationary point found.
 Normal termination of Gaussian 09 at Tue Aug 24 23:41:00 2021.

 -----------------------------------------------------------------
 #P Geom=AllCheck Guess=TCheck SCRF=Check CCSD(T,E4T,FrzG4)/GTBas1
 -----------------------------------------------------------------

 Structure from the checkpoint file:  "/public/home/users/caep010/.cache/gau_scr/Gau-196615.chk"
 ------
 WOQXOR
 ------
 Charge =  0 Multiplicity = 1

 SCF Done:  E(RHF) =  -676.721302115     A.U. after   14 cycles
 E2 =    -0.1947250963D+01 EUMP2 =    -0.67866855307759D+03
 CCSD(T)
 CCSD(T)= -0.67878216599D+03
 58\MP4SDQ=-678.7009761\CCSD=-678.6968586\CCSD(T)=-678.782166\RMSD=9.70
 Normal termination of Gaussian 09 at Wed Aug 25 01:05:50 2021.

 ---------------------------------------------------------
 #P Geom=AllCheck Guess=TCheck SCRF=Check MP4=FrzG4/GTBas2
 ---------------------------------------------------------

 Structure from the checkpoint file:  "/public/home/users/caep010/.cache/gau_scr/Gau-196615.chk"
 ------
 WOQXOR
 ------
 Charge =  0 Multiplicity = 1

 SCF Done:  E(RHF) =  -676.741479607     A.U. after   17 cycles
 E2 =    -0.1974052555D+01 EUMP2 =    -0.67871553216179D+03
 Normal termination of Gaussian 09 at Wed Aug 25 01:38:16 2021.

 ---------------------------------------------------------
 #P Geom=AllCheck Guess=TCheck SCRF=Check MP4=FrzG4/GTBas3
 ---------------------------------------------------------

 Structure from the checkpoint file:  "/public/home/users/caep010/.cache/gau_scr/Gau-196615.chk"
 ------
 WOQXOR
 ------
 Charge =  0 Multiplicity = 1

 SCF Done:  E(RHF) =  -676.795260392     A.U. after   13 cycles
 E2 =    -0.2328717955D+01 EUMP2 =    -0.67912397834630D+03
 Normal termination of Gaussian 09 at Wed Aug 25 05:37:38 2021.

 -----------------------------------------------------------
 #P Geom=AllCheck Guess=TCheck SCRF=Check MP2=Full/GTLargeXP
 -----------------------------------------------------------

 Structure from the checkpoint file:  "/public/home/users/caep010/.cache/gau_scr/Gau-196615.chk"
 ------
 WOQXOR
 ------
 Charge =  0 Multiplicity = 1

 SCF Done:  E(RHF) =  -676.966456111     A.U. after   15 cycles
 E2 =    -0.3050306227D+01 EUMP2 =    -0.68001676233870D+03
 Normal termination of Gaussian 09 at Wed Aug 25 05:49:38 2021.
 SCF Done:  E(RHF) =  -677.021514021     A.U. after   10 cycles
 Normal termination of Gaussian 09 at Wed Aug 25 05:56:02 2021.

                         Standard orientation:
 ---------------------------------------------------------------------
 Center     Atomic      Atomic             Coordinates (Angstroms)
 Number     Number       Type             X           Y           Z
 ---------------------------------------------------------------------
      1          6           0       -2.536992   -0.580127    0.000039
      2          1           0       -2.604114   -1.670220    0.000124
      3          6           0       -1.210228    0.030422    0.000022
      4          7           0       -3.596196    0.135164   -0.000051
      5          8           0       -4.740744   -0.654782    0.000002
      6          1           0       -5.450357   -0.002728   -0.000065
      7          6           0       -1.027257    1.433185   -0.000011
      8          1           0       -1.905178    2.068526   -0.000020
      9          6           0        0.229068    1.993153   -0.000018
     10          1           0        0.370621    3.067420   -0.000036
     11          6           0        1.383049    1.187344    0.000008
     12          6           0        1.196882   -0.213931    0.000023
     13          8           0        2.570422    1.783087    0.000008
     14          6           0       -0.083165   -0.776882    0.000034
     15          1           0       -0.162513   -1.856487    0.000045
     16          7           0        2.334832   -1.107276   -0.000013
     17          1           0        3.239761    1.058772    0.000233
     18          8           0        3.477273   -0.603969   -0.000038
     19          8           0        2.147197   -2.311770   -0.000024
 ---------------------------------------------------------------------

 SCF Done:  E(RHF) =  -677.032196275     A.U. after    7 cycles

 The electronic state is 1-A.
 Alpha  occ. eigenvalues --  -20.62442 -20.61594 -20.61111 -20.60959 -15.87534
 Alpha  occ. eigenvalues --  -15.63598 -11.36415 -11.31673 -11.29704 -11.29193
 Alpha  occ. eigenvalues --  -11.28573 -11.27358 -11.26315  -1.62270  -1.44909
 Alpha  occ. eigenvalues --   -1.44156  -1.41041  -1.21501  -1.17420  -1.10987
 Alpha  occ. eigenvalues --   -1.05838  -0.97437  -0.90064  -0.87451  -0.82965
 Alpha  occ. eigenvalues --   -0.78093  -0.75449  -0.74539  -0.74072  -0.73277
 Alpha  occ. eigenvalues --   -0.70972  -0.66101  -0.65010  -0.64400  -0.62310
 Alpha  occ. eigenvalues --   -0.61179  -0.60186  -0.58092  -0.54777  -0.53266
 Alpha  occ. eigenvalues --   -0.51888  -0.50583  -0.48084  -0.46130  -0.43558
 Alpha  occ. eigenvalues --   -0.39219  -0.33272
 Alpha virt. eigenvalues --    0.01921   0.03411   0.03970   0.04473   0.05014
 Alpha virt. eigenvalues --    0.05139   0.05909   0.06642   0.07167   0.07673
 Alpha virt. eigenvalues --    0.07745   0.08223   0.08281   0.09266   0.09275

 Mulliken charges:
               1
     1  C   -0.060244
     2  H    0.204577
     3  C    0.324473
     4  N   -0.235067
     5  O   -0.497651
     6  H    0.404324
     7  C   -0.232051
     8  H    0.245311
     9  C   -0.181392
    10  H    0.243980
    11  C    0.266633
    12  C    0.116070
    13  O   -0.585865
    14  C   -0.319904
    15  H    0.244979
    16  N    0.511849
    17  H    0.443846
    18  O   -0.472838
    19  O   -0.421028
 Sum of Mulliken charges =  -0.00000

 Dipole moment (field-independent basis, Debye):
    X=             -2.8008    Y=              1.7879    Z=              0.0004  Tot=              3.3228
 Quadrupole moment (field-independent basis, Debye-Ang):
   XX=            -79.6061   YY=            -76.0160   ZZ=            -75.7864
   XY=              0.2639   XZ=              0.0018   YZ=              0.0000

 Normal termination of Gaussian 09 at Wed Aug 25 06:35:07 2021.
