 Gaussian 09, Revision E.01,
 Gaussian 09:  ES64L-G09RevE.01 30-Nov-2015

 ----------------
 #P G4 OPT=calcfc
 ----------------

 ------
 WOVXOU
 ------
 Symbolic Z-matrix:
 Charge =  0 Multiplicity = 1

 SCF Done:  E(RB3LYP) =  -661.729012736     A.U. after   15 cycles
 SCF Done:  E(RB3LYP) =  -661.792715585     A.U. after   13 cycles
 SCF Done:  E(RB3LYP) =  -661.810692169     A.U. after   16 cycles
 SCF Done:  E(RB3LYP) =  -661.811168295     A.U. after   14 cycles
 SCF Done:  E(RB3LYP) =  -661.811281802     A.U. after   14 cycles
 SCF Done:  E(RB3LYP) =  -661.811307154     A.U. after   11 cycles
 SCF Done:  E(RB3LYP) =  -661.811308797     A.U. after    8 cycles
 Optimization completed.
    -- Stationary point found.
 Normal termination of Gaussian 09 at Wed Aug 25 20:23:18 2021.

 ----------------------------------------------------------
 #P Geom=AllCheck Guess=TCheck SCRF=Check B3LYP/GTBas3 Freq
 ----------------------------------------------------------

 Structure from the checkpoint file:  "/public/home/users/caep010/.cache/gau_scr/Gau-198548.chk"
 ------
 WOVXOU
 ------
 Charge =  0 Multiplicity = 1

 SCF Done:  E(RB3LYP) =  -661.811308797     A.U. after    2 cycles

  Exact polarizability: 191.863  -2.889 117.075   3.716   4.777  60.571
 Approx polarizability: 278.882 -14.475 227.047  10.437   4.496 104.337

                      1                      2                      3
                      A                      A                      A
 Frequencies --     48.3194                56.3981                89.1088
 Red. masses --      5.0337                 9.3398                 6.2162
 Frc consts  --      0.0069                 0.0175                 0.0291
 IR Inten    --      0.2426                 0.4361                 0.9776

                      4                      5                      6
                      A                      A                      A
 Frequencies --    105.8903               201.4491               224.7899
 Red. masses --      5.6323                 6.2527                 7.0343
 Frc consts  --      0.0372                 0.1495                 0.2094
 IR Inten    --      1.8708                 1.6768                 0.2336

                      7                      8                      9
                      A                      A                      A
 Frequencies --    294.8579               321.0993               418.7698
 Red. masses --      8.7033                 5.4551                 3.0907
 Frc consts  --      0.4458                 0.3314                 0.3193
 IR Inten    --      0.3999                 0.9161                 0.0455

                     10                     11                     12
                      A                      A                      A
 Frequencies --    427.1900               483.4813               526.5013
 Red. masses --      5.2486                 8.4803                 4.1247
 Frc consts  --      0.5643                 1.1679                 0.6737
 IR Inten    --      0.3083                 0.8606                 5.6238

                     13                     14                     15
                      A                      A                      A
 Frequencies --    574.9174               621.6748               641.2816
 Red. masses --      5.1060                 5.5551                 4.6785
 Frc consts  --      0.9944                 1.2649                 1.1336
 IR Inten    --      4.9694                 0.5173                 0.8608

                     16                     17                     18
                      A                      A                      A
 Frequencies --    677.5295               702.2383               714.4525
 Red. masses --      4.2741                 6.0352                 2.0895
 Frc consts  --      1.1560                 1.7535                 0.6284
 IR Inten    --     11.8072                 6.3210                20.9306

                     19                     20                     21
                      A                      A                      A
 Frequencies --    772.2503               787.7424               810.6499
 Red. masses --      2.0165                 1.6764                 2.4736
 Frc consts  --      0.7085                 0.6129                 0.9577
 IR Inten    --     18.6212                33.1416                 2.7318

                     22                     23                     24
                      A                      A                      A
 Frequencies --    838.3941               855.6086               858.7568
 Red. masses --     12.9285                 1.5540                 1.2519
 Frc consts  --      5.3542                 0.6703                 0.5440
 IR Inten    --     65.7856                14.8940                 0.8425

                     25                     26                     27
                      A                      A                      A
 Frequencies --    934.7029               965.0005               982.1209
 Red. masses --      1.4185                 1.3379                 8.3527
 Frc consts  --      0.7302                 0.7340                 4.7469
 IR Inten    --      1.8809                 0.5155                21.6066

                     28                     29                     30
                      A                      A                      A
 Frequencies --    997.7437              1000.6787              1015.3498
 Red. masses --      1.2853                 4.3433                 5.9277
 Frc consts  --      0.7538                 2.5625                 3.6005
 IR Inten    --      0.2325                 3.9601                 1.4063

                     31                     32                     33
                      A                      A                      A
 Frequencies --   1050.0818              1078.3047              1104.5034
 Red. masses --      2.1845                 1.9921                 1.5490
 Frc consts  --      1.4192                 1.3647                 1.1134
 IR Inten    --      0.2407                66.5227                 3.4188

                     34                     35                     36
                      A                      A                      A
 Frequencies --   1185.7055              1192.7830              1201.5153
 Red. masses --      1.0908                 1.8649                 1.1889
 Frc consts  --      0.9036                 1.5633                 1.0112
 IR Inten    --      0.1455                 9.4493                 0.7677

                     37                     38                     39
                      A                      A                      A
 Frequencies --   1263.2041              1284.5545              1336.9359
 Red. masses --      1.6221                 3.5495                 6.4099
 Frc consts  --      1.5250                 3.4508                 6.7503
 IR Inten    --     20.0886                19.1292                53.3730

                     40                     41                     42
                      A                      A                      A
 Frequencies --   1343.8167              1353.6642              1393.3148
 Red. masses --      7.6190                 1.5671                10.1127
 Frc consts  --      8.1064                 1.6919                11.5669
 IR Inten    --     45.2420                15.1936               216.2948

                     43                     44                     45
                      A                      A                      A
 Frequencies --   1441.5695              1487.9792              1526.3772
 Red. masses --      5.8567                 2.4022                 3.2356
 Frc consts  --      7.1709                 3.1337                 4.4416
 IR Inten    --     63.8472                 4.1164                12.6906

                     46                     47                     48
                      A                      A                      A
 Frequencies --   1537.4224              1550.7014              1631.0196
 Red. masses --      3.3687                 6.3696                 6.5152
 Frc consts  --      4.6914                 9.0244                10.2117
 IR Inten    --    163.9835                51.1604                13.1189

                     49                     50                     51
                      A                      A                      A
 Frequencies --   1637.9480              1641.6897              3181.6038
 Red. masses --     12.8813                 5.8383                 1.0845
 Frc consts  --     20.3616                 9.2709                 6.4682
 IR Inten    --    227.1233                18.6692                 1.2987

                     52                     53                     54
                      A                      A                      A
 Frequencies --   3189.1456              3198.3041              3204.9322
 Red. masses --      1.0876                 1.0914                 1.0945
 Frc consts  --      6.5174                 6.5775                 6.6238
 IR Inten    --      3.5196                12.6142                 8.4855

                     55                     56                     57
                      A                      A                      A
 Frequencies --   3210.4588              3264.3678              3310.8733
 Red. masses --      1.0980                 1.0967                 1.0997
 Frc consts  --      6.6680                 6.8857                 7.1026
 IR Inten    --      3.3519                 0.4260                 7.1683

 - Thermochemistry -
 -------------------
 Temperature   298.150 Kelvin.  Pressure   1.00000 Atm.
 Atom     1 has atomic number  7 and mass  14.00307

 Molecular mass:   189.05383 amu.
 Principal axes and moments of inertia in atomic units:
                           1         2         3
     Eigenvalues --   765.747305424.761776010.06376
           X            1.00000  -0.00177   0.00125
           Y            0.00173   0.99971   0.02407
           Z           -0.00129  -0.02407   0.99971
 This molecule is an asymmetric top.
 Rotational symmetry number  1.
 Warning -- assumption of classical behavior for rotation
           may cause significant error
 Rotational temperatures (Kelvin)      0.11311     0.01597     0.01441
 Rotational constants (GHZ):           2.35684     0.33269     0.30029
 Zero-point vibrational energy     405245.3 (Joules/Mol)
                                   96.85595 (Kcal/Mol)
 Warning -- explicit consideration of  13 degrees of freedom as
           vibrations may cause significant error
 Vibrational temperatures:     69.52    81.14   128.21   152.35   289.84
          (Kelvin)            323.42   424.23   461.99   602.52   614.63
                              695.62   757.52   827.18   894.45   922.66
                              974.81  1010.36  1027.94  1111.09  1133.38
                             1166.34  1206.26  1231.03  1235.56  1344.83
                             1388.42  1413.05  1435.53  1439.75  1460.86
                             1510.83  1551.44  1589.13  1705.96  1716.15
                             1728.71  1817.47  1848.19  1923.55  1933.45
                             1947.62  2004.67  2074.09  2140.87  2196.11
                             2212.01  2231.11  2346.67  2356.64  2362.02
                             4577.61  4588.46  4601.64  4611.18  4619.13
                             4696.69  4763.60

 Zero-point correction=                           0.154350 (Hartree/Particle)
 Thermal correction to Energy=                    0.164946
 Thermal correction to Enthalpy=                  0.165890
 Thermal correction to Gibbs Free Energy=         0.116437
 Sum of electronic and zero-point Energies=           -661.656959
 Sum of electronic and thermal Energies=              -661.646363
 Sum of electronic and thermal Enthalpies=            -661.645418
 Sum of electronic and thermal Free Energies=         -661.694872

                     E (Thermal)             CV                S
                      KCal/Mol        Cal/Mol-Kelvin    Cal/Mol-Kelvin
 Total                  103.505             40.556            104.083
 Electronic               0.000              0.000              0.000
 Translational            0.889              2.981             41.616
 Rotational               0.889              2.981             31.591
 Vibrational            101.728             34.595             30.876
 Vibration     1          0.595              1.978              4.885
 Vibration     2          0.596              1.975              4.579
 Vibration     3          0.602              1.957              3.680
 Vibration     4          0.605              1.945              3.343
 Vibration     5          0.638              1.838              2.120
 Vibration     6          0.649              1.803              1.920
 Vibration     7          0.689              1.683              1.446
 Vibration     8          0.707              1.633              1.305
 Vibration     9          0.782              1.429              0.896
 Vibration    10          0.789              1.411              0.868
 Vibration    11          0.840              1.287              0.701
 Vibration    12          0.881              1.191              0.595
 Vibration    13          0.931              1.086              0.495

 Optimization completed.
    -- Stationary point found.
 Normal termination of Gaussian 09 at Wed Aug 25 20:26:51 2021.

 -----------------------------------------------------------------
 #P Geom=AllCheck Guess=TCheck SCRF=Check CCSD(T,E4T,FrzG4)/GTBas1
 -----------------------------------------------------------------

 Structure from the checkpoint file:  "/public/home/users/caep010/.cache/gau_scr/Gau-198548.chk"
 ------
 WOVXOU
 ------
 Charge =  0 Multiplicity = 1

 SCF Done:  E(RHF) =  -657.824121553     A.U. after   15 cycles
 E2 =    -0.2004476637D+01 EUMP2 =    -0.65982859818983D+03
 CCSD(T)
 CCSD(T)= -0.65995157623D+03
 659.9695406\MP4SDQ=-659.8607601\CCSD=-659.857004\CCSD(T)=-659.9515762\
 Normal termination of Gaussian 09 at Wed Aug 25 22:13:51 2021.

 ---------------------------------------------------------
 #P Geom=AllCheck Guess=TCheck SCRF=Check MP4=FrzG4/GTBas2
 ---------------------------------------------------------

 Structure from the checkpoint file:  "/public/home/users/caep010/.cache/gau_scr/Gau-198548.chk"
 ------
 WOVXOU
 ------
 Charge =  0 Multiplicity = 1

 SCF Done:  E(RHF) =  -657.842543297     A.U. after   15 cycles
 E2 =    -0.2028644181D+01 EUMP2 =    -0.65987118747801D+03
 Normal termination of Gaussian 09 at Wed Aug 25 23:14:00 2021.

 ---------------------------------------------------------
 #P Geom=AllCheck Guess=TCheck SCRF=Check MP4=FrzG4/GTBas3
 ---------------------------------------------------------

 Structure from the checkpoint file:  "/public/home/users/caep010/.cache/gau_scr/Gau-198548.chk"
 ------
 WOVXOU
 ------
 Charge =  0 Multiplicity = 1

 SCF Done:  E(RHF) =  -657.887195456     A.U. after   12 cycles
 E2 =    -0.2377390836D+01 EUMP2 =    -0.66026458629188D+03
 Normal termination of Gaussian 09 at Thu Aug 26 06:17:59 2021.

 -----------------------------------------------------------
 #P Geom=AllCheck Guess=TCheck SCRF=Check MP2=Full/GTLargeXP
 -----------------------------------------------------------

 Structure from the checkpoint file:  "/public/home/users/caep010/.cache/gau_scr/Gau-198548.chk"
 ------
 WOVXOU
 ------
 Charge =  0 Multiplicity = 1

 SCF Done:  E(RHF) =  -658.042559473     A.U. after   16 cycles
 E2 =    -0.3125788190D+01 EUMP2 =    -0.66116834766360D+03
 Normal termination of Gaussian 09 at Thu Aug 26 06:30:35 2021.
 SCF Done:  E(RHF) =  -658.093834462     A.U. after    9 cycles
 Normal termination of Gaussian 09 at Thu Aug 26 06:38:19 2021.

                         Standard orientation:
 ---------------------------------------------------------------------
 Center     Atomic      Atomic             Coordinates (Angstroms)
 Number     Number       Type             X           Y           Z
 ---------------------------------------------------------------------
      1          7           0        3.396509    0.391563   -0.141553
      2          8           0        3.468667    1.566339   -0.502231
      3          8           0        4.343037   -0.346276    0.074998
      4          6           0        2.063094   -0.134384    0.032867
      5          7           0        1.821965   -1.412512    0.434780
      6          6           0        0.906833    0.570898   -0.185366
      7          6           0        0.516935   -1.500330    0.461095
      8          7           0       -0.097669   -0.321527    0.090504
      9          6           0       -1.498390   -0.077411    0.027277
     10          6           0       -2.013483    1.135784    0.483886
     11          6           0       -2.346861   -1.057625   -0.487441
     12          6           0       -3.717326   -0.821891   -0.534446
     13          6           0       -4.238671    0.389872   -0.087702
     14          6           0       -3.383435    1.367263    0.416330
     15          1           0       -1.347845    1.879736    0.905102
     16          1           0       -0.055152   -2.364389    0.761449
     17          1           0        0.729268    1.573792   -0.528354
     18          1           0       -1.933104   -1.984344   -0.868182
     19          1           0       -4.375743   -1.584769   -0.935233
     20          1           0       -3.782396    2.311293    0.770916
     21          1           0       -5.306478    0.572444   -0.132960
 ---------------------------------------------------------------------

 SCF Done:  E(RHF) =  -658.103509737     A.U. after    8 cycles

 The electronic state is 1-A.
 Alpha  occ. eigenvalues --  -20.59491 -20.58567 -15.84653 -15.66691 -15.58665
 Alpha  occ. eigenvalues --  -11.33192 -11.32165 -11.31984 -11.31311 -11.27246
 Alpha  occ. eigenvalues --  -11.27212 -11.27046 -11.27026 -11.26517  -1.59610
 Alpha  occ. eigenvalues --   -1.39406  -1.38944  -1.24844  -1.17703  -1.09316
 Alpha  occ. eigenvalues --   -1.05553  -1.05365  -0.97282  -0.89700  -0.86872
 Alpha  occ. eigenvalues --   -0.82463  -0.81124  -0.78882  -0.73699  -0.71711
 Alpha  occ. eigenvalues --   -0.71695  -0.70160  -0.67735  -0.66336  -0.64377
 Alpha  occ. eigenvalues --   -0.62995  -0.62718  -0.62208  -0.55140  -0.54482
 Alpha  occ. eigenvalues --   -0.53466  -0.49222  -0.48864  -0.48195  -0.45437
 Alpha  occ. eigenvalues --   -0.44461  -0.37520  -0.36993  -0.35192
 Alpha virt. eigenvalues --    0.02213   0.03058   0.03572   0.03782   0.04742
 Alpha virt. eigenvalues --    0.05248   0.05319   0.05900   0.06275   0.06441
 Alpha virt. eigenvalues --    0.07009   0.07199   0.07350   0.07701   0.08189

 Mulliken charges:
               1
     1  N    0.499841
     2  O   -0.461420
     3  O   -0.377819
     4  C    0.209288
     5  N   -0.471910
     6  C   -0.216330
     7  C   -0.015159
     8  N    0.132641
     9  C    0.281952
    10  C   -0.296187
    11  C   -0.313874
    12  C   -0.164910
    13  C   -0.228440
    14  C   -0.171893
    15  H    0.215975
    16  H    0.242982
    17  H    0.279218
    18  H    0.212975
    19  H    0.215972
    20  H    0.216373
    21  H    0.210724
 Sum of Mulliken charges =  -0.00000

 Dipole moment (field-independent basis, Debye):
    X=             -9.0367    Y=              0.0054    Z=              0.0398  Tot=              9.0368
 Quadrupole moment (field-independent basis, Debye-Ang):
   XX=            -97.6957   YY=            -77.5388   ZZ=            -82.0835
   XY=              0.0578   XZ=              0.8908   YZ=              4.1383

 Normal termination of Gaussian 09 at Thu Aug 26 07:36:15 2021.
