 Gaussian 09, Revision E.01,
 Gaussian 09:  ES64L-G09RevE.01 30-Nov-2015

 ----------------
 #P G4 OPT=calcfc
 ----------------

 ------
 WUMHES
 ------
 Symbolic Z-matrix:
 Charge =  0 Multiplicity = 1

 SCF Done:  E(RB3LYP) =  -686.303552335     A.U. after   17 cycles
 SCF Done:  E(RB3LYP) =  -686.413533242     A.U. after   13 cycles
 SCF Done:  E(RB3LYP) =  -686.493733201     A.U. after   13 cycles
 SCF Done:  E(RB3LYP) =  -686.495468699     A.U. after   14 cycles
 SCF Done:  E(RB3LYP) =  -686.495624664     A.U. after   13 cycles
 SCF Done:  E(RB3LYP) =  -686.495645822     A.U. after   11 cycles
 SCF Done:  E(RB3LYP) =  -686.495648532     A.U. after    9 cycles
 SCF Done:  E(RB3LYP) =  -686.495649069     A.U. after    9 cycles
 SCF Done:  E(RB3LYP) =  -686.495648789     A.U. after    8 cycles
 Optimization completed.
    -- Stationary point found.
 Normal termination of Gaussian 09 at Thu Aug 26 05:55:54 2021.

 ----------------------------------------------------------
 #P Geom=AllCheck Guess=TCheck SCRF=Check B3LYP/GTBas3 Freq
 ----------------------------------------------------------

 Structure from the checkpoint file:  "/public/home/users/caep010/.cache/gau_scr/Gau-206874.chk"
 ------
 WUMHES
 ------
 Charge =  0 Multiplicity = 1

 SCF Done:  E(RB3LYP) =  -686.495648789     A.U. after    1 cycles

  Exact polarizability: 127.352   3.261 118.308   4.613  -6.597  98.994
 Approx polarizability: 187.790  11.174 181.540   7.895 -24.605 166.768

                      1                      2                      3
                      A                      A                      A
 Frequencies --     55.5884                58.8921                68.2879
 Red. masses --      4.6756                 9.9348                 3.5175
 Frc consts  --      0.0085                 0.0203                 0.0097
 IR Inten    --      2.5409                 0.4015                 1.8478

                      4                      5                      6
                      A                      A                      A
 Frequencies --    113.0019               159.9914               181.5430
 Red. masses --      5.1254                 3.7521                 4.5264
 Frc consts  --      0.0386                 0.0566                 0.0879
 IR Inten    --      2.9252                 1.2079                 5.7506

                      7                      8                      9
                      A                      A                      A
 Frequencies --    225.4618               245.9047               259.5357
 Red. masses --      2.3040                 1.3070                 1.2631
 Frc consts  --      0.0690                 0.0466                 0.0501
 IR Inten    --      4.4785                 0.5078                 0.3234

                     10                     11                     12
                      A                      A                      A
 Frequencies --    270.1532               285.8607               312.0987
 Red. masses --      3.0242                 2.6454                 4.1218
 Frc consts  --      0.1300                 0.1274                 0.2365
 IR Inten    --      1.9933                 3.6284                 0.4946

                     13                     14                     15
                      A                      A                      A
 Frequencies --    324.7132               347.0687               385.3277
 Red. masses --      3.2674                 2.8750                 3.3674
 Frc consts  --      0.2030                 0.2040                 0.2946
 IR Inten    --      1.1704                 3.7178                10.2465

                     16                     17                     18
                      A                      A                      A
 Frequencies --    397.0953               434.0987               487.8428
 Red. masses --      2.5040                 2.9647                 4.3904
 Frc consts  --      0.2326                 0.3292                 0.6156
 IR Inten    --      2.9664                 1.0761                 1.9665

                     19                     20                     21
                      A                      A                      A
 Frequencies --    549.9259               638.6022               699.4059
 Red. masses --      3.4249                 3.6027                 3.7926
 Frc consts  --      0.6102                 0.8656                 1.0931
 IR Inten    --      1.4451                 4.9762                25.5141

                     22                     23                     24
                      A                      A                      A
 Frequencies --    750.2029               781.9331               804.8437
 Red. masses --      6.6641                 4.4273                 3.4532
 Frc consts  --      2.2098                 1.5949                 1.3179
 IR Inten    --      7.7772                 0.4622                 3.3570

                     25                     26                     27
                      A                      A                      A
 Frequencies --    837.6535               862.4648               872.1248
 Red. masses --      4.0100                 2.4855                 2.2803
 Frc consts  --      1.6578                 1.0893                 1.0219
 IR Inten    --      5.1686                11.4390                 7.3269

                     28                     29                     30
                      A                      A                      A
 Frequencies --    924.8077               931.7064               936.3677
 Red. masses --      1.5676                 1.9654                 1.4779
 Frc consts  --      0.7899                 1.0052                 0.7635
 IR Inten    --      2.5061                21.1588                 1.4770

                     31                     32                     33
                      A                      A                      A
 Frequencies --    957.4411               970.3602               988.8213
 Red. masses --      2.8638                 1.6706                 2.3138
 Frc consts  --      1.5467                 0.9268                 1.3330
 IR Inten    --      1.9401                 0.8798                10.2642

                     34                     35                     36
                      A                      A                      A
 Frequencies --   1036.8662              1052.7872              1059.6036
 Red. masses --      1.6095                 1.7641                 1.5995
 Frc consts  --      1.0195                 1.1520                 1.0581
 IR Inten    --      0.2360                15.2827                 1.4442

                     37                     38                     39
                      A                      A                      A
 Frequencies --   1079.5959              1104.2927              1110.6034
 Red. masses --      1.3538                 1.5450                 1.7048
 Frc consts  --      0.9296                 1.1100                 1.2389
 IR Inten    --     10.2111                 9.2153                17.3854

                     40                     41                     42
                      A                      A                      A
 Frequencies --   1133.2646              1176.7518              1204.0886
 Red. masses --      2.3760                 2.1149                 1.8758
 Frc consts  --      1.7979                 1.7255                 1.6024
 IR Inten    --      0.9851                17.0463                 5.3140

                     43                     44                     45
                      A                      A                      A
 Frequencies --   1211.8003              1242.3516              1269.4438
 Red. masses --      1.8782                 1.9835                 1.3936
 Frc consts  --      1.6250                 1.8037                 1.3232
 IR Inten    --      9.6051                27.5399                 6.6013

                     46                     47                     48
                      A                      A                      A
 Frequencies --   1291.3074              1328.3258              1350.6252
 Red. masses --      2.5091                 1.3427                 1.7169
 Frc consts  --      2.4651                 1.3959                 1.8453
 IR Inten    --     30.8378                 2.7644                 8.9604

                     49                     50                     51
                      A                      A                      A
 Frequencies --   1356.1475              1378.0017              1387.3428
 Red. masses --      1.6837                 1.4728                 1.7611
 Frc consts  --      1.8244                 1.6477                 1.9971
 IR Inten    --     10.0909                16.9405                18.1055

                     52                     53                     54
                      A                      A                      A
 Frequencies --   1402.1245              1408.3367              1416.4810
 Red. masses --      1.2953                 2.5084                 3.4127
 Frc consts  --      1.5004                 2.9313                 4.0344
 IR Inten    --      6.1079               243.0898                18.9804

                     55                     56                     57
                      A                      A                      A
 Frequencies --   1426.8613              1440.9069              1467.9518
 Red. masses --      1.2967                 1.4581                 1.4110
 Frc consts  --      1.5555                 1.7837                 1.7914
 IR Inten    --     26.1517                 3.4553                 7.9878

                     58                     59                     60
                      A                      A                      A
 Frequencies --   1486.0964              1497.1266              1505.7883
 Red. masses --      1.0453                 1.0539                 1.0439
 Frc consts  --      1.3601                 1.3918                 1.3945
 IR Inten    --      1.7816                 1.8785                12.0535

                     61                     62                     63
                      A                      A                      A
 Frequencies --   1510.1720              1523.6025              1631.0258
 Red. masses --      1.0637                 1.0736                13.4854
 Frc consts  --      1.4292                 1.4683                21.1366
 IR Inten    --      7.8112                 5.3725               229.2667

                     64                     65                     66
                      A                      A                      A
 Frequencies --   1789.7433              2953.6991              3031.6247
 Red. masses --      8.7172                 1.0844                 1.0359
 Frc consts  --     16.4516                 5.5742                 5.6092
 IR Inten    --    403.6099                57.9351                21.9980

                     67                     68                     69
                      A                      A                      A
 Frequencies --   3036.9433              3047.1063              3049.1230
 Red. masses --      1.0380                 1.0675                 1.0809
 Frc consts  --      5.6408                 5.8398                 5.9210
 IR Inten    --      5.3433                49.4637                 3.7355

                     70                     71                     72
                      A                      A                      A
 Frequencies --   3079.7121              3100.6383              3105.1111
 Red. masses --      1.0860                 1.1011                 1.1006
 Frc consts  --      6.0690                 6.2368                 6.2524
 IR Inten    --      0.7813                15.9357                 3.6904

                     73                     74                     75
                      A                      A                      A
 Frequencies --   3107.6950              3111.2196              3113.7890
 Red. masses --      1.1008                 1.0980                 1.0982
 Frc consts  --      6.2638                 6.2621                 6.2733
 IR Inten    --     33.1573                15.0309                34.3241

                     76                     77                     78
                      A                      A                      A
 Frequencies --   3142.1912              3218.9657              3242.6010
 Red. masses --      1.0547                 1.0920                 1.1162
 Frc consts  --      6.1357                 6.6663                 6.9149
 IR Inten    --      3.0171                 0.1535                 0.2497

 - Thermochemistry -
 -------------------
 Temperature   298.150 Kelvin.  Pressure   1.00000 Atm.
 Atom     1 has atomic number  8 and mass  15.99491

 Molecular mass:   198.10044 amu.
 Principal axes and moments of inertia in atomic units:
                           1         2         3
     Eigenvalues --  1782.481102971.534763938.14036
           X            0.99911  -0.04171   0.00548
           Y            0.04165   0.99908   0.01008
           Z           -0.00590  -0.00984   0.99993
 This molecule is an asymmetric top.
 Rotational symmetry number  1.
 Warning -- assumption of classical behavior for rotation
           may cause significant error
 Rotational temperatures (Kelvin)      0.04859     0.02915     0.02199
 Rotational constants (GHZ):           1.01249     0.60734     0.45827
 Zero-point vibrational energy     608534.1 (Joules/Mol)
                                  145.44315 (Kcal/Mol)
 Warning -- explicit consideration of  19 degrees of freedom as
           vibrations may cause significant error
 Vibrational temperatures:     79.98    84.73    98.25   162.58   230.19
          (Kelvin)            261.20   324.39   353.80   373.41   388.69
                              411.29   449.04   467.19   499.35   554.40
                              571.33   624.57   701.90   791.22   918.80
                             1006.29  1079.37  1125.03  1157.99  1205.20
                             1240.89  1254.79  1330.59  1340.52  1347.22
                             1377.54  1396.13  1422.69  1491.82  1514.72
                             1524.53  1553.30  1588.83  1597.91  1630.51
                             1693.08  1732.41  1743.51  1787.46  1826.44
                             1857.90  1911.16  1943.25  1951.19  1982.63
                             1996.07  2017.34  2026.28  2038.00  2052.93
                             2073.14  2112.05  2138.16  2154.03  2166.49
                             2172.80  2192.12  2346.68  2575.04  4249.71
                             4361.83  4369.48  4384.10  4387.00  4431.01
                             4461.12  4467.56  4471.27  4476.35  4480.04
                             4520.91  4631.37  4665.37

 Zero-point correction=                           0.231778 (Hartree/Particle)
 Thermal correction to Energy=                    0.245211
 Thermal correction to Enthalpy=                  0.246155
 Thermal correction to Gibbs Free Energy=         0.191805
 Sum of electronic and zero-point Energies=           -686.263870
 Sum of electronic and thermal Energies=              -686.250438
 Sum of electronic and thermal Enthalpies=            -686.249494
 Sum of electronic and thermal Free Energies=         -686.303844

                     E (Thermal)             CV                S
                      KCal/Mol        Cal/Mol-Kelvin    Cal/Mol-Kelvin
 Total                  153.872             50.921            114.389
 Electronic               0.000              0.000              0.000
 Translational            0.889              2.981             41.756
 Rotational               0.889              2.981             31.412
 Vibrational            152.094             44.960             41.221
 Vibration     1          0.596              1.975              4.608
 Vibration     2          0.596              1.974              4.494
 Vibration     3          0.598              1.969              4.202
 Vibration     4          0.607              1.939              3.217
 Vibration     5          0.622              1.891              2.550
 Vibration     6          0.630              1.865              2.312
 Vibration     7          0.650              1.802              1.915
 Vibration     8          0.660              1.770              1.760
 Vibration     9          0.668              1.747              1.665
 Vibration    10          0.674              1.728              1.595
 Vibration    11          0.684              1.700              1.498
 Vibration    12          0.700              1.651              1.351
 Vibration    13          0.709              1.626              1.286
 Vibration    14          0.725              1.581              1.179
 Vibration    15          0.754              1.502              1.018
 Vibration    16          0.764              1.476              0.973
 Vibration    17          0.795              1.396              0.845
 Vibration    18          0.844              1.277              0.689
 Vibration    19          0.905              1.140              0.544

 Optimization completed.
    -- Stationary point found.
 Normal termination of Gaussian 09 at Thu Aug 26 06:01:25 2021.

 -----------------------------------------------------------------
 #P Geom=AllCheck Guess=TCheck SCRF=Check CCSD(T,E4T,FrzG4)/GTBas1
 -----------------------------------------------------------------

 Structure from the checkpoint file:  "/public/home/users/caep010/.cache/gau_scr/Gau-206874.chk"
 ------
 WUMHES
 ------
 Charge =  0 Multiplicity = 1

 SCF Done:  E(RHF) =  -682.301390768     A.U. after   15 cycles
 E2 =    -0.2057873336D+01 EUMP2 =    -0.68435926410391D+03
 CCSD(T)
 CCSD(T)= -0.68450961556D+03
 Q=-684.5239567\MP4SDQ=-684.4323389\CCSD=-684.4271064\CCSD(T)=-684.5096
 Normal termination of Gaussian 09 at Thu Aug 26 09:07:52 2021.

 ---------------------------------------------------------
 #P Geom=AllCheck Guess=TCheck SCRF=Check MP4=FrzG4/GTBas2
 ---------------------------------------------------------

 Structure from the checkpoint file:  "/public/home/users/caep010/.cache/gau_scr/Gau-206874.chk"
 ------
 WUMHES
 ------
 Charge =  0 Multiplicity = 1

 SCF Done:  E(RHF) =  -682.317011918     A.U. after   14 cycles
 E2 =    -0.2086503553D+01 EUMP2 =    -0.68440351547056D+03
 Normal termination of Gaussian 09 at Thu Aug 26 10:33:40 2021.

 ---------------------------------------------------------
 #P Geom=AllCheck Guess=TCheck SCRF=Check MP4=FrzG4/GTBas3
 ---------------------------------------------------------

 Structure from the checkpoint file:  "/public/home/users/caep010/.cache/gau_scr/Gau-206874.chk"
 ------
 WUMHES
 ------
 Charge =  0 Multiplicity = 1

 SCF Done:  E(RHF) =  -682.373108095     A.U. after   12 cycles
 E2 =    -0.2496225677D+01 EUMP2 =    -0.68486933377253D+03
 Normal termination of Gaussian 09 at Thu Aug 26 23:56:18 2021.

 -----------------------------------------------------------
 #P Geom=AllCheck Guess=TCheck SCRF=Check MP2=Full/GTLargeXP
 -----------------------------------------------------------

 Structure from the checkpoint file:  "/public/home/users/caep010/.cache/gau_scr/Gau-206874.chk"
 ------
 WUMHES
 ------
 Charge =  0 Multiplicity = 1

 SCF Done:  E(RHF) =  -682.535226672     A.U. after   14 cycles
 E2 =    -0.3263562518D+01 EUMP2 =    -0.68579878919025D+03
 Normal termination of Gaussian 09 at Fri Aug 27 00:23:21 2021.
 SCF Done:  E(RHF) =  -682.587738703     A.U. after    9 cycles
 Normal termination of Gaussian 09 at Fri Aug 27 00:35:11 2021.

                         Standard orientation:
 ---------------------------------------------------------------------
 Center     Atomic      Atomic             Coordinates (Angstroms)
 Number     Number       Type             X           Y           Z
 ---------------------------------------------------------------------
      1          8           0       -3.481319   -1.230210   -0.212637
      2          6           0       -2.585683   -0.512638   -0.604226
      3          7           0       -1.366800   -0.392302   -0.002177
      4          6           0       -0.243670    0.375645   -0.567316
      5          6           0        0.924678   -0.567335   -0.257251
      6          6           0        0.494689   -1.598903    0.760080
      7          1           0       -0.391922    0.464733   -1.649121
      8          1           0        1.175386   -1.885975    1.549825
      9          1           0       -2.671038    0.127336   -1.502884
     10          6           0       -0.963645   -1.309104    1.070449
     11          1           0       -1.609365   -2.189344    1.035521
     12          1           0       -1.067192   -0.848174    2.058734
     13          6           0        0.792238   -2.028916   -0.643685
     14          7           0        2.311946   -0.071649   -0.277203
     15          8           0        3.139138   -0.675403    0.392974
     16          8           0        2.557238    0.881089   -1.005727
     17          1           0       -0.022810   -2.294214   -1.308764
     18          1           0        1.726319   -2.551920   -0.807015
     19          6           0       -0.118013    1.810114    0.012005
     20          6           0       -1.323517    2.662204   -0.407503
     21          1           0       -1.188683    3.695712   -0.074812
     22          1           0       -1.447859    2.678603   -1.495636
     23          1           0       -2.254205    2.292619    0.036046
     24          6           0        0.071706    1.850417    1.534956
     25          1           0       -0.817191    1.480114    2.056292
     26          1           0        0.933473    1.264359    1.869194
     27          1           0        0.234765    2.881381    1.862691
     28          1           0        0.771135    2.239712   -0.456336
 ---------------------------------------------------------------------

 SCF Done:  E(RHF) =  -682.598441493     A.U. after    8 cycles

 The electronic state is 1-A.
 Alpha  occ. eigenvalues --  -20.61124 -20.60943 -20.53521 -15.86143 -15.60444
 Alpha  occ. eigenvalues --  -11.36031 -11.32510 -11.31068 -11.28863 -11.27847
 Alpha  occ. eigenvalues --  -11.27507 -11.24798 -11.23012 -11.22998  -1.61556
 Alpha  occ. eigenvalues --   -1.40989  -1.39767  -1.29757  -1.19611  -1.10411
 Alpha  occ. eigenvalues --   -1.04224  -0.98439  -0.96841  -0.94617  -0.85231
 Alpha  occ. eigenvalues --   -0.82906  -0.81670  -0.78387  -0.75227  -0.73679
 Alpha  occ. eigenvalues --   -0.72823  -0.71469  -0.68082  -0.65515  -0.63827
 Alpha  occ. eigenvalues --   -0.63175  -0.61680  -0.60744  -0.57516  -0.56615
 Alpha  occ. eigenvalues --   -0.55312  -0.55116  -0.54804  -0.52374  -0.51641
 Alpha  occ. eigenvalues --   -0.50818  -0.49196  -0.48781  -0.46157  -0.45555
 Alpha  occ. eigenvalues --   -0.45359  -0.43904  -0.39442
 Alpha virt. eigenvalues --    0.02615   0.03234   0.03293   0.04446   0.04770
 Alpha virt. eigenvalues --    0.05079   0.05533   0.05730   0.06396   0.07165
 Alpha virt. eigenvalues --    0.07584   0.07667   0.08115   0.08223   0.08814

 Mulliken charges:
               1
     1  O   -0.642859
     2  C    0.281242
     3  N   -0.066661
     4  C   -0.022665
     5  C    0.190525
     6  C   -0.152653
     7  H    0.232254
     8  H    0.256413
     9  H    0.183414
    10  C   -0.328831
    11  H    0.245269
    12  H    0.197774
    13  C   -0.480259
    14  N    0.519328
    15  O   -0.445486
    16  O   -0.437844
    17  H    0.208615
    18  H    0.239432
    19  C   -0.015712
    20  C   -0.658737
    21  H    0.185577
    22  H    0.171514
    23  H    0.189327
    24  C   -0.623450
    25  H    0.179291
    26  H    0.179037
    27  H    0.189422
    28  H    0.226725
 Sum of Mulliken charges =  -0.00000

 Dipole moment (field-independent basis, Debye):
    X=             -0.1085    Y=              0.3518    Z=             -0.0791  Tot=              0.3766
 Quadrupole moment (field-independent basis, Debye-Ang):
   XX=           -115.0777   YY=            -80.9677   ZZ=            -80.1293
   XY=            -10.0310   XZ=              2.1043   YZ=              1.0701

 Normal termination of Gaussian 09 at Fri Aug 27 01:57:32 2021.
