 Gaussian 09, Revision E.01,
 Gaussian 09:  ES64L-G09RevE.01 30-Nov-2015

 ----------------
 #P G4 OPT=calcfc
 ----------------

 ------
 WOBLUU
 ------
 Symbolic Z-matrix:
 Charge =  0 Multiplicity = 1

 SCF Done:  E(RB3LYP) =  -690.537440676     A.U. after   16 cycles
 SCF Done:  E(RB3LYP) =  -690.582306973     A.U. after   15 cycles
 SCF Done:  E(RB3LYP) =  -690.588286102     A.U. after   16 cycles
 SCF Done:  E(RB3LYP) =  -690.588635387     A.U. after   13 cycles
 SCF Done:  E(RB3LYP) =  -690.588660056     A.U. after   13 cycles
 SCF Done:  E(RB3LYP) =  -690.588661502     A.U. after   10 cycles
 SCF Done:  E(RB3LYP) =  -690.588661637     A.U. after    9 cycles
 SCF Done:  E(RB3LYP) =  -690.588661581     A.U. after    8 cycles
 Optimization completed.
    -- Stationary point found.
 Normal termination of Gaussian 09 at Thu Aug 26 23:58:32 2021.

 ----------------------------------------------------------
 #P Geom=AllCheck Guess=TCheck SCRF=Check B3LYP/GTBas3 Freq
 ----------------------------------------------------------

 Structure from the checkpoint file:  "/public/home/users/caep010/.cache/gau_scr/Gau-171911.chk"
 ------
 WOBLUU
 ------
 Charge =  0 Multiplicity = 1

 SCF Done:  E(RB3LYP) =  -690.588661581     A.U. after    3 cycles

  Exact polarizability: 110.126   1.716  73.886  10.809   5.617  54.458
 Approx polarizability: 168.177  19.070 146.357  32.779  23.989  99.227

                      1                      2                      3
                      A                      A                      A
 Frequencies --     33.3681                37.8067                48.1775
 Red. masses --     14.1701                12.7762                 8.7458
 Frc consts  --      0.0093                 0.0108                 0.0120
 IR Inten    --      0.5513                 0.7512                 4.9125

                      4                      5                      6
                      A                      A                      A
 Frequencies --     91.9946               196.7651               206.8023
 Red. masses --      9.6225                 5.3625                 8.3393
 Frc consts  --      0.0480                 0.1223                 0.2101
 IR Inten    --      2.2170                 2.0382                 1.0805

                      7                      8                      9
                      A                      A                      A
 Frequencies --    335.6428               350.7231               374.1602
 Red. masses --      8.6770                 4.1795                 6.1380
 Frc consts  --      0.5759                 0.3029                 0.5063
 IR Inten    --      1.7974                 2.8795                 0.4551

                     10                     11                     12
                      A                      A                      A
 Frequencies --    464.7248               549.5098               591.3327
 Red. masses --     10.0965                 6.3520                 4.6601
 Frc consts  --      1.2847                 1.1301                 0.9601
 IR Inten    --      2.9261                 1.6578                 4.3246

                     13                     14                     15
                      A                      A                      A
 Frequencies --    649.5440               670.4012               698.6575
 Red. masses --      5.2520                 9.5844                 5.5660
 Frc consts  --      1.3055                 2.5380                 1.6007
 IR Inten    --      3.2790                22.1733                36.6145

                     16                     17                     18
                      A                      A                      A
 Frequencies --    813.7816               827.2967               850.9610
 Red. masses --     12.9559                 5.7193                11.6147
 Frc consts  --      5.0551                 2.3063                 4.9554
 IR Inten    --      0.1218                14.6791                95.0906

                     19                     20                     21
                      A                      A                      A
 Frequencies --    871.1241               892.6337               996.0340
 Red. masses --      1.4668                11.1861                 2.4732
 Frc consts  --      0.6558                 5.2514                 1.4456
 IR Inten    --      5.9144                15.7090                 0.7309

                     22                     23                     24
                      A                      A                      A
 Frequencies --   1032.1198              1050.0312              1202.0737
 Red. masses --      6.8721                 4.8021                 1.5491
 Frc consts  --      4.3132                 3.1195                 1.3189
 IR Inten    --      1.6314                34.3205                 1.4296

                     25                     26                     27
                      A                      A                      A
 Frequencies --   1234.6828              1341.2899              1348.7040
 Red. masses --      1.6361                 1.3451                 4.8342
 Frc consts  --      1.4695                 1.4257                 5.1809
 IR Inten    --     33.8185                37.0493                31.1714

                     28                     29                     30
                      A                      A                      A
 Frequencies --   1351.6799              1410.0785              1413.9315
 Red. masses --      3.7947                 9.2768                 4.4782
 Frc consts  --      4.0848                10.8677                 5.2748
 IR Inten    --    127.9426                86.9925               115.0180

                     31                     32                     33
                      A                      A                      A
 Frequencies --   1441.5957              1455.5504              1464.7641
 Red. masses --      3.2969                 2.2157                 2.9614
 Frc consts  --      4.0368                 2.7657                 3.7435
 IR Inten    --     20.8157                21.8995                22.1092

                     34                     35                     36
                      A                      A                      A
 Frequencies --   1556.1136              1666.1730              1699.7684
 Red. masses --      6.7301                14.5023                12.5273
 Frc consts  --      9.6018                23.7208                21.3248
 IR Inten    --     64.3276               212.0560               261.8043

                     37                     38                     39
                      A                      A                      A
 Frequencies --   3118.4434              3197.7783              3262.4562
 Red. masses --      1.0593                 1.1092                 1.0995
 Frc consts  --      6.0696                 6.6828                 6.8948
 IR Inten    --      4.3548                 2.8075                 1.2962

 - Thermochemistry -
 -------------------
 Temperature   298.150 Kelvin.  Pressure   1.00000 Atm.
 Atom     1 has atomic number  7 and mass  14.00307

 Molecular mass:   173.01850 amu.
 Principal axes and moments of inertia in atomic units:
                           1         2         3
     Eigenvalues --   704.138903670.379393932.59949
           X            0.99997  -0.00269   0.00732
           Y            0.00273   0.99998  -0.00512
           Z           -0.00730   0.00514   0.99996
 This molecule is an asymmetric top.
 Rotational symmetry number  1.
 Warning -- assumption of classical behavior for rotation
           may cause significant error
 Rotational temperatures (Kelvin)      0.12301     0.02360     0.02202
 Rotational constants (GHZ):           2.56305     0.49170     0.45892
 Zero-point vibrational energy     244030.3 (Joules/Mol)
                                   58.32464 (Kcal/Mol)
 Warning -- explicit consideration of  12 degrees of freedom as
           vibrations may cause significant error
 Vibrational temperatures:     48.01    54.40    69.32   132.36   283.10
          (Kelvin)            297.54   482.91   504.61   538.33   668.63
                              790.62   850.79   934.55   964.56  1005.21
                             1170.85  1190.29  1224.34  1253.35  1284.30
                             1433.07  1484.99  1510.76  1729.51  1776.43
                             1929.81  1940.48  1944.76  2028.79  2034.33
                             2074.13  2094.21  2107.47  2238.90  2397.25
                             2445.58  4486.74  4600.88  4693.94

 Zero-point correction=                           0.092946 (Hartree/Particle)
 Thermal correction to Energy=                    0.102793
 Thermal correction to Enthalpy=                  0.103737
 Thermal correction to Gibbs Free Energy=         0.054621
 Sum of electronic and zero-point Energies=           -690.495715
 Sum of electronic and thermal Energies=              -690.485869
 Sum of electronic and thermal Enthalpies=            -690.484925
 Sum of electronic and thermal Free Energies=         -690.534041

                     E (Thermal)             CV                S
                      KCal/Mol        Cal/Mol-Kelvin    Cal/Mol-Kelvin
 Total                   64.503             33.684            103.373
 Electronic               0.000              0.000              0.000
 Translational            0.889              2.981             41.352
 Rotational               0.889              2.981             30.698
 Vibrational             62.726             27.722             31.323
 Vibration     1          0.594              1.983              5.618
 Vibration     2          0.594              1.982              5.371
 Vibration     3          0.595              1.978              4.891
 Vibration     4          0.602              1.955              3.617
 Vibration     5          0.636              1.844              2.163
 Vibration     6          0.641              1.830              2.072
 Vibration     7          0.717              1.604              1.233
 Vibration     8          0.728              1.574              1.163
 Vibration     9          0.745              1.525              1.063
 Vibration    10          0.822              1.328              0.752
 Vibration    11          0.905              1.141              0.545
 Vibration    12          0.949              1.050              0.465

 Normal termination of Gaussian 09 at Fri Aug 27 00:00:35 2021.

 -----------------------------------------------------------------
 #P Geom=AllCheck Guess=TCheck SCRF=Check CCSD(T,E4T,FrzG4)/GTBas1
 -----------------------------------------------------------------

 Structure from the checkpoint file:  "/public/home/users/caep010/.cache/gau_scr/Gau-171911.chk"
 ------
 WOBLUU
 ------
 Charge =  0 Multiplicity = 1

 SCF Done:  E(RHF) =  -686.744885200     A.U. after   15 cycles
 E2 =    -0.1956642256D+01 EUMP2 =    -0.68870152745527D+03
 CCSD(T)
 CCSD(T)= -0.68878200793D+03
 Normal termination of Gaussian 09 at Fri Aug 27 00:51:40 2021.

 ---------------------------------------------------------
 #P Geom=AllCheck Guess=TCheck SCRF=Check MP4=FrzG4/GTBas2
 ---------------------------------------------------------

 Structure from the checkpoint file:  "/public/home/users/caep010/.cache/gau_scr/Gau-171911.chk"
 ------
 WOBLUU
 ------
 Charge =  0 Multiplicity = 1

 SCF Done:  E(RHF) =  -686.765909239     A.U. after   13 cycles
 E2 =    -0.1983841894D+01 EUMP2 =    -0.68874975113323D+03
 Normal termination of Gaussian 09 at Fri Aug 27 01:09:49 2021.

 ---------------------------------------------------------
 #P Geom=AllCheck Guess=TCheck SCRF=Check MP4=FrzG4/GTBas3
 ---------------------------------------------------------

 Structure from the checkpoint file:  "/public/home/users/caep010/.cache/gau_scr/Gau-171911.chk"
 ------
 WOBLUU
 ------
 Charge =  0 Multiplicity = 1

 SCF Done:  E(RHF) =  -686.814800442     A.U. after   12 cycles
 E2 =    -0.2319970728D+01 EUMP2 =    -0.68913477116979D+03
 Normal termination of Gaussian 09 at Fri Aug 27 03:16:57 2021.

 -----------------------------------------------------------
 #P Geom=AllCheck Guess=TCheck SCRF=Check MP2=Full/GTLargeXP
 -----------------------------------------------------------

 Structure from the checkpoint file:  "/public/home/users/caep010/.cache/gau_scr/Gau-171911.chk"
 ------
 WOBLUU
 ------
 Charge =  0 Multiplicity = 1

 SCF Done:  E(RHF) =  -686.995201421     A.U. after   13 cycles
 E2 =    -0.3003763091D+01 EUMP2 =    -0.68999896451206D+03
 Normal termination of Gaussian 09 at Fri Aug 27 03:30:23 2021.
 SCF Done:  E(RHF) =  -687.049938038     A.U. after    9 cycles
 Normal termination of Gaussian 09 at Fri Aug 27 03:34:22 2021.

                         Standard orientation:
 ---------------------------------------------------------------------
 Center     Atomic      Atomic             Coordinates (Angstroms)
 Number     Number       Type             X           Y           Z
 ---------------------------------------------------------------------
      1          7           0        0.378842   -0.538681   -0.526524
      2          7           0       -0.583790    0.409899   -0.597915
      3          6           0        1.402914    0.167982   -0.098874
      4          7           0        1.187446    1.485966    0.120391
      5          6           0       -1.915556    0.050212   -0.937058
      6          7           0       -2.756632   -0.299897    0.302437
      7          8           0       -3.842326   -0.782098    0.045025
      8          8           0       -2.294601   -0.049114    1.395612
      9          7           0        2.710422   -0.458535    0.114497
     10          8           0        3.599654    0.268487    0.520497
     11          8           0        2.792065   -1.650230   -0.133222
     12          6           0       -0.080384    1.608861   -0.193367
     13          1           0       -2.442930    0.874319   -1.417474
     14          1           0       -1.921714   -0.837242   -1.565409
     15          1           0       -0.669548    2.512975   -0.154829
 ---------------------------------------------------------------------

 SCF Done:  E(RHF) =  -687.060779864     A.U. after    8 cycles

 The electronic state is 1-A.
 Alpha  occ. eigenvalues --  -20.64323 -20.63833 -20.62058 -20.61731 -15.88520
 Alpha  occ. eigenvalues --  -15.87463 -15.72203 -15.66790 -15.62199 -11.40241
 Alpha  occ. eigenvalues --  -11.39136 -11.38016  -1.64741  -1.62788  -1.49043
 Alpha  occ. eigenvalues --   -1.44590  -1.42183  -1.29010  -1.21379  -1.11815
 Alpha  occ. eigenvalues --   -1.03105  -0.94632  -0.88323  -0.85614  -0.82254
 Alpha  occ. eigenvalues --   -0.80376  -0.77753  -0.76480  -0.74976  -0.74314
 Alpha  occ. eigenvalues --   -0.73333  -0.69206  -0.67791  -0.65435  -0.57338
 Alpha  occ. eigenvalues --   -0.54127  -0.53218  -0.52445  -0.51735  -0.50625
 Alpha  occ. eigenvalues --   -0.49270  -0.47661  -0.46503  -0.43596
 Alpha virt. eigenvalues --    0.01117   0.02767   0.03204   0.03833   0.04239
 Alpha virt. eigenvalues --    0.05599   0.06280   0.06443   0.06595   0.06857
 Alpha virt. eigenvalues --    0.07518   0.08439   0.09398   0.09886   0.10844

 Mulliken charges:
               1
     1  N   -0.297500
     2  N    0.174674
     3  C    0.374657
     4  N   -0.441688
     5  C   -0.254004
     6  N    0.561940
     7  O   -0.414516
     8  O   -0.374582
     9  N    0.516689
    10  O   -0.364341
    11  O   -0.377038
    12  C    0.113252
    13  H    0.251175
    14  H    0.276078
    15  H    0.255203
 Sum of Mulliken charges =  -0.00000

 Dipole moment (field-independent basis, Debye):
    X=             -4.2616    Y=              3.3557    Z=             -3.8116  Tot=              6.6295
 Quadrupole moment (field-independent basis, Debye-Ang):
   XX=            -89.2131   YY=            -67.7108   ZZ=            -65.9786
   XY=             -5.2642   XZ=              5.7526   YZ=             -2.5398

 Normal termination of Gaussian 09 at Fri Aug 27 04:04:32 2021.
