 Gaussian 09, Revision E.01,
 Gaussian 09:  ES64L-G09RevE.01 30-Nov-2015

 ----------------
 #P G4 OPT=calcfc
 ----------------

 ------
 XAVMOW
 ------
 Symbolic Z-matrix:
 Charge =  0 Multiplicity = 1

 SCF Done:  E(RB3LYP) =  -680.530841177     A.U. after   17 cycles
 SCF Done:  E(RB3LYP) =  -680.618448652     A.U. after   13 cycles
 SCF Done:  E(RB3LYP) =  -680.654667031     A.U. after   16 cycles
 SCF Done:  E(RB3LYP) =  -680.656231631     A.U. after   13 cycles
 SCF Done:  E(RB3LYP) =  -680.656290398     A.U. after   14 cycles
 SCF Done:  E(RB3LYP) =  -680.656692637     A.U. after   11 cycles
 SCF Done:  E(RB3LYP) =  -680.657647301     A.U. after   14 cycles
 SCF Done:  E(RB3LYP) =  -680.660789238     A.U. after   15 cycles
 SCF Done:  E(RB3LYP) =  -680.661580858     A.U. after   13 cycles
 SCF Done:  E(RB3LYP) =  -680.660505653     A.U. after   12 cycles
 SCF Done:  E(RB3LYP) =  -680.661821765     A.U. after   11 cycles
 SCF Done:  E(RB3LYP) =  -680.661831433     A.U. after    9 cycles
 SCF Done:  E(RB3LYP) =  -680.661832522     A.U. after    9 cycles
 Optimization completed.
    -- Stationary point found.
 Normal termination of Gaussian 09 at Thu Aug 26 11:24:58 2021.

 ----------------------------------------------------------
 #P Geom=AllCheck Guess=TCheck SCRF=Check B3LYP/GTBas3 Freq
 ----------------------------------------------------------

 Structure from the checkpoint file:  "/public/home/users/caep010/.cache/gau_scr/Gau-196174.chk"
 ------
 XAVMOW
 ------
 Charge =  0 Multiplicity = 1

 SCF Done:  E(RB3LYP) =  -680.661832522     A.U. after    1 cycles

  Exact polarizability: 167.469   1.750 107.823   0.716   1.766  46.491
 Approx polarizability: 243.042   3.483 225.241   3.326   4.986  77.435

                      1                      2                      3
                      A                      A                      A
 Frequencies --     49.0142                64.1398                79.7241
 Red. masses --     11.5253                 7.4915                 6.0438
 Frc consts  --      0.0163                 0.0182                 0.0226
 IR Inten    --      0.4323                 2.1048                 4.6938

                      4                      5                      6
                      A                      A                      A
 Frequencies --    121.6828               182.2965               244.6884
 Red. masses --      8.1116                 6.3015                 8.1175
 Frc consts  --      0.0708                 0.1234                 0.2864
 IR Inten    --      3.6077                 0.7621                 3.4540

                      7                      8                      9
                      A                      A                      A
 Frequencies --    276.8390               303.2077               331.2547
 Red. masses --     10.3125                 6.3164                 6.0894
 Frc consts  --      0.4657                 0.3421                 0.3937
 IR Inten    --      1.0576                 5.0341                47.5134

                     10                     11                     12
                      A                      A                      A
 Frequencies --    421.0581               434.7829               451.0881
 Red. masses --      3.0993                 2.0520                 1.9213
 Frc consts  --      0.3237                 0.2285                 0.2303
 IR Inten    --      0.2460                56.0266                90.9500

                     13                     14                     15
                      A                      A                      A
 Frequencies --    489.5693               505.2821               521.1023
 Red. masses --      3.6229                 1.8001                 4.3116
 Frc consts  --      0.5116                 0.2708                 0.6898
 IR Inten    --     13.3281                24.8304                27.1040

                     16                     17                     18
                      A                      A                      A
 Frequencies --    548.5556               637.6981               696.3219
 Red. masses --      3.6974                 6.8443                 5.2484
 Frc consts  --      0.6555                 1.6399                 1.4993
 IR Inten    --     24.0714                 0.3623                 2.4896

                     19                     20                     21
                      A                      A                      A
 Frequencies --    727.8962               739.3474               799.6166
 Red. masses --      7.2762                 3.3502                 5.5730
 Frc consts  --      2.2714                 1.0790                 2.0995
 IR Inten    --      4.1742                58.4010                 3.2004

                     22                     23                     24
                      A                      A                      A
 Frequencies --    864.7470               869.0744               905.8904
 Red. masses --      9.6140                 1.2640                 1.8322
 Frc consts  --      4.2358                 0.5625                 0.8859
 IR Inten    --     64.5133                 0.4123                17.6303

                     25                     26                     27
                      A                      A                      A
 Frequencies --    922.4491               983.1901              1009.8730
 Red. masses --      5.3206                 1.3330                 1.3605
 Frc consts  --      2.6675                 0.7592                 0.8175
 IR Inten    --     12.5026                 1.2130                 0.2500

                     28                     29                     30
                      A                      A                      A
 Frequencies --   1027.1911              1053.0608              1121.3480
 Red. masses --      2.9436                 5.1635                 2.0966
 Frc consts  --      1.8299                 3.3737                 1.5533
 IR Inten    --     17.5706                88.9414                19.1679

                     31                     32                     33
                      A                      A                      A
 Frequencies --   1122.8136              1168.4253              1196.9175
 Red. masses --      1.5645                 3.3097                 1.3395
 Frc consts  --      1.1621                 2.6622                 1.1306
 IR Inten    --     17.9122                27.8332                 0.6982

                     34                     35                     36
                      A                      A                      A
 Frequencies --   1282.6408              1314.8064              1360.7061
 Red. masses --      1.8428                 1.3279                 7.9568
 Frc consts  --      1.7862                 1.3525                 8.6800
 IR Inten    --      5.5212                 1.3625                17.5668

                     37                     38                     39
                      A                      A                      A
 Frequencies --   1394.0666              1414.5038              1432.8847
 Red. masses --     12.7048                 2.1140                 3.0728
 Frc consts  --     14.5474                 2.4921                 3.7171
 IR Inten    --    383.9295               150.6627                62.8917

                     40                     41                     42
                      A                      A                      A
 Frequencies --   1518.2563              1560.6522              1608.3172
 Red. masses --      2.3453                 1.3958                 9.0609
 Frc consts  --      3.1852                 2.0031                13.8091
 IR Inten    --      0.3388                57.6972                76.8330

                     43                     44                     45
                      A                      A                      A
 Frequencies --   1637.9523              1660.3380              1737.9756
 Red. masses --      5.9734                10.6992                 8.5093
 Frc consts  --      9.4423                17.3778                15.1436
 IR Inten    --      1.3732               149.1997               145.8874

                     46                     47                     48
                      A                      A                      A
 Frequencies --   3196.0548              3215.6920              3238.2343
 Red. masses --      1.0895                 1.0894                 1.0923
 Frc consts  --      6.5573                 6.6371                 6.7486
 IR Inten    --      2.4525                 0.6787                 2.1080

                     49                     50                     51
                      A                      A                      A
 Frequencies --   3239.0476              3536.6116              3607.3307
 Red. masses --      1.0932                 1.0639                 1.0788
 Frc consts  --      6.7574                 7.8401                 8.2713
 IR Inten    --      1.8961                46.1342                55.5872

 - Thermochemistry -
 -------------------
 Temperature   298.150 Kelvin.  Pressure   1.00000 Atm.
 Atom     1 has atomic number  8 and mass  15.99491

 Molecular mass:   182.03276 amu.
 Principal axes and moments of inertia in atomic units:
                           1         2         3
     Eigenvalues --   647.146225119.693755717.59073
           X            0.99999   0.00269  -0.00178
           Y           -0.00268   0.99998   0.00505
           Z            0.00179  -0.00505   0.99999
 This molecule is an asymmetric top.
 Rotational symmetry number  1.
 Warning -- assumption of classical behavior for rotation
           may cause significant error
 Rotational temperatures (Kelvin)      0.13384     0.01692     0.01515
 Rotational constants (GHZ):           2.78877     0.35251     0.31565
 Zero-point vibrational energy     351858.9 (Joules/Mol)
                                   84.09630 (Kcal/Mol)
 Warning -- explicit consideration of  16 degrees of freedom as
           vibrations may cause significant error
 Vibrational temperatures:     70.52    92.28   114.70   175.07   262.28
          (Kelvin)            352.05   398.31   436.25   476.60   605.81
                              625.55   649.01   704.38   726.99   749.75
                              789.25   917.50  1001.85  1047.28  1063.75
                             1150.47  1244.18  1250.40  1303.37  1327.20
                             1414.59  1452.98  1477.90  1515.12  1613.37
                             1615.48  1681.10  1722.10  1845.43  1891.71
                             1957.75  2005.75  2035.15  2061.60  2184.43
                             2245.43  2314.01  2356.65  2388.85  2500.56
                             4598.40  4626.66  4659.09  4660.26  5088.39
                             5190.14

 Zero-point correction=                           0.134016 (Hartree/Particle)
 Thermal correction to Energy=                    0.145020
 Thermal correction to Enthalpy=                  0.145964
 Thermal correction to Gibbs Free Energy=         0.096069
 Sum of electronic and zero-point Energies=           -680.527817
 Sum of electronic and thermal Energies=              -680.516813
 Sum of electronic and thermal Enthalpies=            -680.515868
 Sum of electronic and thermal Free Energies=         -680.565763

                     E (Thermal)             CV                S
                      KCal/Mol        Cal/Mol-Kelvin    Cal/Mol-Kelvin
 Total                   91.001             40.915            105.012
 Electronic               0.000              0.000              0.000
 Translational            0.889              2.981             41.504
 Rotational               0.889              2.981             31.316
 Vibrational             89.224             34.954             32.192
 Vibration     1          0.595              1.978              4.857
 Vibration     2          0.597              1.971              4.326
 Vibration     3          0.600              1.963              3.898
 Vibration     4          0.609              1.931              3.073
 Vibration     5          0.630              1.864              2.305
 Vibration     6          0.660              1.772              1.769
 Vibration     7          0.678              1.716              1.553
 Vibration     8          0.695              1.668              1.399
 Vibration     9          0.714              1.613              1.254
 Vibration    10          0.784              1.424              0.888
 Vibration    11          0.795              1.394              0.843
 Vibration    12          0.810              1.358              0.792
 Vibration    13          0.845              1.273              0.685
 Vibration    14          0.861              1.238              0.645
 Vibration    15          0.876              1.203              0.607
 Vibration    16          0.904              1.143              0.547

 Normal termination of Gaussian 09 at Thu Aug 26 11:27:39 2021.

 -----------------------------------------------------------------
 #P Geom=AllCheck Guess=TCheck SCRF=Check CCSD(T,E4T,FrzG4)/GTBas1
 -----------------------------------------------------------------

 Structure from the checkpoint file:  "/public/home/users/caep010/.cache/gau_scr/Gau-196174.chk"
 ------
 XAVMOW
 ------
 Charge =  0 Multiplicity = 1

 SCF Done:  E(RHF) =  -676.737006532     A.U. after   15 cycles
 E2 =    -0.1944348239D+01 EUMP2 =    -0.67868135477077D+03
 CCSD(T)
 CCSD(T)= -0.67879148794D+03
 -678.8098488\MP4SDQ=-678.7121112\CCSD=-678.7068162\CCSD(T)=-678.791487
 Normal termination of Gaussian 09 at Thu Aug 26 13:02:49 2021.

 ---------------------------------------------------------
 #P Geom=AllCheck Guess=TCheck SCRF=Check MP4=FrzG4/GTBas2
 ---------------------------------------------------------

 Structure from the checkpoint file:  "/public/home/users/caep010/.cache/gau_scr/Gau-196174.chk"
 ------
 XAVMOW
 ------
 Charge =  0 Multiplicity = 1

 SCF Done:  E(RHF) =  -676.757430513     A.U. after   16 cycles
 E2 =    -0.1971036829D+01 EUMP2 =    -0.67872846734215D+03
 Normal termination of Gaussian 09 at Thu Aug 26 13:34:30 2021.

 ---------------------------------------------------------
 #P Geom=AllCheck Guess=TCheck SCRF=Check MP4=FrzG4/GTBas3
 ---------------------------------------------------------

 Structure from the checkpoint file:  "/public/home/users/caep010/.cache/gau_scr/Gau-196174.chk"
 ------
 XAVMOW
 ------
 Charge =  0 Multiplicity = 1

 SCF Done:  E(RHF) =  -676.808918684     A.U. after   12 cycles
 E2 =    -0.2326305600D+01 EUMP2 =    -0.67913522428368D+03
 Normal termination of Gaussian 09 at Thu Aug 26 17:18:19 2021.

 -----------------------------------------------------------
 #P Geom=AllCheck Guess=TCheck SCRF=Check MP2=Full/GTLargeXP
 -----------------------------------------------------------

 Structure from the checkpoint file:  "/public/home/users/caep010/.cache/gau_scr/Gau-196174.chk"
 ------
 XAVMOW
 ------
 Charge =  0 Multiplicity = 1

 SCF Done:  E(RHF) =  -676.981063623     A.U. after   15 cycles
 E2 =    -0.3047271725D+01 EUMP2 =    -0.68002833534832D+03
 Normal termination of Gaussian 09 at Thu Aug 26 17:30:25 2021.
 SCF Done:  E(RHF) =  -677.035745934     A.U. after   10 cycles
 Normal termination of Gaussian 09 at Thu Aug 26 17:36:50 2021.

                         Standard orientation:
 ---------------------------------------------------------------------
 Center     Atomic      Atomic             Coordinates (Angstroms)
 Number     Number       Type             X           Y           Z
 ---------------------------------------------------------------------
      1          8           0       -4.509773   -0.629476    0.286900
      2          1           0       -4.572439    0.328761    0.086281
      3          7           0       -3.137329   -0.837976    0.156130
      4          1           0       -2.810757   -1.501215    0.844994
      5          6           0       -2.405502    0.287876   -0.111756
      6          8           0       -2.979296    1.337055   -0.380330
      7          6           0       -0.922341    0.137565   -0.082217
      8          6           0       -0.285189   -1.102757   -0.208004
      9          6           0        1.100417   -1.185209   -0.165410
     10          6           0        1.832121   -0.015011   -0.001469
     11          7           0        3.305333   -0.098668    0.046056
     12          8           0        3.811089   -1.208018   -0.058360
     13          6           0       -0.159781    1.301222    0.064239
     14          1           0       -0.673603    2.251921    0.137521
     15          6           0        1.225197    1.230979    0.110272
     16          1           0        1.839538    2.113151    0.228217
     17          8           0        3.925226    0.946186    0.188311
     18          1           0        1.621077   -2.127695   -0.265573
     19          1           0       -0.867350   -2.002381   -0.372840
 ---------------------------------------------------------------------

 SCF Done:  E(RHF) =  -677.046373949     A.U. after    8 cycles

 The electronic state is 1-A.
 Alpha  occ. eigenvalues --  -20.61862 -20.61506 -20.61472 -20.56398 -15.86765
 Alpha  occ. eigenvalues --  -15.66220 -11.39410 -11.33288 -11.30037 -11.29282
 Alpha  occ. eigenvalues --  -11.29140 -11.29047 -11.28501  -1.62011  -1.47492
 Alpha  occ. eigenvalues --   -1.41438  -1.39719  -1.22381  -1.17693  -1.11206
 Alpha  occ. eigenvalues --   -1.07295  -0.99194  -0.88895  -0.88329  -0.84082
 Alpha  occ. eigenvalues --   -0.79920  -0.77821  -0.74490  -0.73469  -0.72525
 Alpha  occ. eigenvalues --   -0.68844  -0.67301  -0.66584  -0.64660  -0.64013
 Alpha  occ. eigenvalues --   -0.61396  -0.58699  -0.57244  -0.54889  -0.53891
 Alpha  occ. eigenvalues --   -0.51097  -0.51043  -0.48337  -0.46922  -0.42239
 Alpha  occ. eigenvalues --   -0.39557  -0.38783
 Alpha virt. eigenvalues --    0.00725   0.02736   0.03829   0.04273   0.04512
 Alpha virt. eigenvalues --    0.05578   0.06004   0.06455   0.06696   0.07185
 Alpha virt. eigenvalues --    0.07413   0.07974   0.08451   0.08953   0.09179

 Mulliken charges:
               1
     1  O   -0.501300
     2  H    0.416404
     3  N   -0.248701
     4  H    0.351966
     5  C    0.378138
     6  O   -0.618446
     7  C    0.283752
     8  C   -0.262170
     9  C   -0.206782
    10  C    0.093165
    11  N    0.520658
    12  O   -0.427393
    13  C   -0.223752
    14  H    0.261173
    15  C   -0.177272
    16  H    0.272561
    17  O   -0.422381
    18  H    0.271263
    19  H    0.239117
 Sum of Mulliken charges =  -0.00000

 Dipole moment (field-independent basis, Debye):
    X=             -1.6490    Y=             -1.2281    Z=              1.0785  Tot=              2.3217
 Quadrupole moment (field-independent basis, Debye-Ang):
   XX=           -105.6207   YY=            -71.0154   ZZ=            -74.5746
   XY=              3.3576   XZ=             -3.7053   YZ=              0.3234

 Normal termination of Gaussian 09 at Thu Aug 26 18:20:30 2021.
