 Gaussian 09, Revision E.01,
 Gaussian 09:  ES64L-G09RevE.01 30-Nov-2015

 ----------------
 #P G4 OPT=calcfc
 ----------------

 ------
 XEKWIW
 ------
 Symbolic Z-matrix:
 Charge =  0 Multiplicity = 1

 SCF Done:  E(RB3LYP) =  -604.189608929     A.U. after   16 cycles
 SCF Done:  E(RB3LYP) =  -604.259118712     A.U. after   13 cycles
 SCF Done:  E(RB3LYP) =  -604.277263465     A.U. after   16 cycles
 SCF Done:  E(RB3LYP) =  -604.277728692     A.U. after   14 cycles
 SCF Done:  E(RB3LYP) =  -604.277756880     A.U. after   11 cycles
 SCF Done:  E(RB3LYP) =  -604.277757444     A.U. after    9 cycles
 Optimization completed.
    -- Stationary point found.
 Normal termination of Gaussian 09 at Fri Aug 27 00:06:28 2021.

 ----------------------------------------------------------
 #P Geom=AllCheck Guess=TCheck SCRF=Check B3LYP/GTBas3 Freq
 ----------------------------------------------------------

 Structure from the checkpoint file:  "/public/home/users/caep010/.cache/gau_scr/Gau-89138.chk"
 ------
 XEKWIW
 ------
 Charge =  0 Multiplicity = 1

 SCF Done:  E(RB3LYP) =  -604.277757444     A.U. after    1 cycles

  Exact polarizability: 172.790   6.228  96.148   0.000   0.001  40.829
 Approx polarizability: 275.598  20.849 195.195   0.001  -0.005  66.609

                      1                      2                      3
                      A                      A                      A
 Frequencies --     46.8461                68.5528                77.0840
 Red. masses --     11.2992                 7.3544                11.6015
 Frc consts  --      0.0146                 0.0204                 0.0406
 IR Inten    --      1.2275                 0.1372                 1.6410

                      4                      5                      6
                      A                      A                      A
 Frequencies --    130.7313               229.6583               314.1303
 Red. masses --     10.1099                 9.5480                 7.4197
 Frc consts  --      0.1018                 0.2967                 0.4314
 IR Inten    --      2.8057                 4.7321                 0.1399

                      7                      8                      9
                      A                      A                      A
 Frequencies --    325.5690               411.8609               425.4488
 Red. masses --     11.7200                 7.1224                 3.1655
 Frc consts  --      0.7319                 0.7118                 0.3376
 IR Inten    --      0.0138                11.4389                 0.0006

                     10                     11                     12
                      A                      A                      A
 Frequencies --    511.0237               537.0701               567.3372
 Red. masses --      2.9584                 6.8934                 8.4362
 Frc consts  --      0.4552                 1.1715                 1.5999
 IR Inten    --      2.0146                 1.8262                10.0364

                     13                     14                     15
                      A                      A                      A
 Frequencies --    591.7070               639.8584               669.0475
 Red. masses --     12.3928                 7.4577                10.3589
 Frc consts  --      2.5564                 1.7990                 2.7320
 IR Inten    --     22.8545                 3.7561                20.3100

                     16                     17                     18
                      A                      A                      A
 Frequencies --    708.9377               781.6772               783.2095
 Red. masses --      3.7808                 7.3256                 4.6294
 Frc consts  --      1.1196                 2.6372                 1.6731
 IR Inten    --     10.7250                 3.1417                21.4520

                     19                     20                     21
                      A                      A                      A
 Frequencies --    846.1140               872.4281               888.1839
 Red. masses --      1.2577                10.3368                 1.7894
 Frc consts  --      0.5305                 4.6355                 0.8317
 IR Inten    --      0.3371                56.3080                29.7874

                     22                     23                     24
                      A                      A                      A
 Frequencies --    971.1312               998.2497              1024.6999
 Red. masses --      1.3206                 1.3673                 2.7891
 Frc consts  --      0.7338                 0.8028                 1.7255
 IR Inten    --      0.2543                 0.4839                 1.7405

                     25                     26                     27
                      A                      A                      A
 Frequencies --   1121.0681              1125.2563              1153.4720
 Red. masses --      1.2409                 2.8846                 4.0319
 Frc consts  --      0.9189                 2.1520                 3.1606
 IR Inten    --     13.6662                76.9577                55.9267

                     28                     29                     30
                      A                      A                      A
 Frequencies --   1195.8303              1308.5329              1351.1632
 Red. masses --      1.3536                 1.3772                 7.1988
 Frc consts  --      1.1405                 1.3894                 7.7433
 IR Inten    --      1.5255                 3.0400                15.1826

                     31                     32                     33
                      A                      A                      A
 Frequencies --   1390.4863              1441.6828              1486.4577
 Red. masses --     14.2219                 3.4316                 2.7080
 Frc consts  --     16.2010                 4.2023                 3.5254
 IR Inten    --    439.2217                 1.1876                 5.2585

                     34                     35                     36
                      A                      A                      A
 Frequencies --   1571.5856              1601.5615              1636.8119
 Red. masses --      6.8012                 9.6195                 6.3812
 Frc consts  --      9.8972                14.5374                10.0727
 IR Inten    --     70.0796                64.6008               165.5958

                     37                     38                     39
                      A                      A                      A
 Frequencies --   1655.5176              2377.0867              3197.4437
 Red. masses --     10.4837                12.7125                 1.0905
 Frc consts  --     16.9290                42.3224                 6.5688
 IR Inten    --    161.2326              1790.1661                 3.6789

                     40                     41                     42
                      A                      A                      A
 Frequencies --   3213.0474              3237.6337              3238.3552
 Red. masses --      1.0902                 1.0923                 1.0932
 Frc consts  --      6.6311                 6.7458                 6.7547
 IR Inten    --      1.5597                 2.3882                 2.7497

 - Thermochemistry -
 -------------------
 Temperature   298.150 Kelvin.  Pressure   1.00000 Atm.
 Atom     1 has atomic number  6 and mass  12.00000

 Molecular mass:   164.02219 amu.
 Principal axes and moments of inertia in atomic units:
                           1         2         3
     Eigenvalues --   499.865184308.120904807.98603
           X            1.00000   0.00140   0.00000
           Y           -0.00140   1.00000   0.00001
           Z           -0.00000  -0.00001   1.00000
 This molecule is an asymmetric top.
 Rotational symmetry number  1.
 Warning -- assumption of classical behavior for rotation
           may cause significant error
 Rotational temperatures (Kelvin)      0.17327     0.02010     0.01801
 Rotational constants (GHZ):           3.61046     0.41892     0.37536
 Zero-point vibrational energy     279468.9 (Joules/Mol)
                                   66.79467 (Kcal/Mol)
 Warning -- explicit consideration of  13 degrees of freedom as
           vibrations may cause significant error
 Vibrational temperatures:     67.40    98.63   110.91   188.09   330.43
          (Kelvin)            451.96   468.42   592.58   612.13   735.25
                              772.72   816.27   851.33   920.61   962.61
                             1020.00  1124.66  1126.86  1217.37  1255.23
                             1277.90  1397.24  1436.26  1474.31  1612.96
                             1618.99  1659.59  1720.53  1882.68  1944.02
                             2000.60  2074.26  2138.68  2261.16  2304.29
                             2355.00  2381.92  3420.09  4600.40  4622.85
                             4658.23  4659.27

 Zero-point correction=                           0.106444 (Hartree/Particle)
 Thermal correction to Energy=                    0.115990
 Thermal correction to Enthalpy=                  0.116934
 Thermal correction to Gibbs Free Energy=         0.069905
 Sum of electronic and zero-point Energies=           -604.171313
 Sum of electronic and thermal Energies=              -604.161767
 Sum of electronic and thermal Enthalpies=            -604.160823
 Sum of electronic and thermal Free Energies=         -604.207853

                     E (Thermal)             CV                S
                      KCal/Mol        Cal/Mol-Kelvin    Cal/Mol-Kelvin
 Total                   72.785             34.769             98.982
 Electronic               0.000              0.000              0.000
 Translational            0.889              2.981             41.193
 Rotational               0.889              2.981             30.716
 Vibrational             71.007             28.807             27.073
 Vibration     1          0.595              1.979              4.946
 Vibration     2          0.598              1.969              4.194
 Vibration     3          0.599              1.964              3.964
 Vibration     4          0.612              1.923              2.935
 Vibration     5          0.652              1.796              1.882
 Vibration     6          0.702              1.647              1.340
 Vibration     7          0.710              1.624              1.282
 Vibration     8          0.776              1.444              0.920
 Vibration     9          0.787              1.415              0.874
 Vibration    10          0.866              1.226              0.631
 Vibration    11          0.892              1.168              0.572
 Vibration    12          0.923              1.102              0.509
 Vibration    13          0.949              1.049              0.464

 Optimization completed.
    -- Stationary point found.
 Normal termination of Gaussian 09 at Fri Aug 27 00:08:23 2021.

 -----------------------------------------------------------------
 #P Geom=AllCheck Guess=TCheck SCRF=Check CCSD(T,E4T,FrzG4)/GTBas1
 -----------------------------------------------------------------

 Structure from the checkpoint file:  "/public/home/users/caep010/.cache/gau_scr/Gau-89138.chk"
 ------
 XEKWIW
 ------
 Charge =  0 Multiplicity = 1

 SCF Done:  E(RHF) =  -600.772852795     A.U. after   15 cycles
 E2 =    -0.1754699493D+01 EUMP2 =    -0.60252755228819D+03
 CCSD(T)
 CCSD(T)= -0.60262079460D+03
 02.6430077\MP4SDQ=-602.5447424\CCSD=-602.5381061\CCSD(T)=-602.6207946\
 Normal termination of Gaussian 09 at Fri Aug 27 00:54:51 2021.

 ---------------------------------------------------------
 #P Geom=AllCheck Guess=TCheck SCRF=Check MP4=FrzG4/GTBas2
 ---------------------------------------------------------

 Structure from the checkpoint file:  "/public/home/users/caep010/.cache/gau_scr/Gau-89138.chk"
 ------
 XEKWIW
 ------
 Charge =  0 Multiplicity = 1

 SCF Done:  E(RHF) =  -600.788506816     A.U. after   15 cycles
 E2 =    -0.1775206953D+01 EUMP2 =    -0.60256371376881D+03
 Normal termination of Gaussian 09 at Fri Aug 27 01:10:52 2021.

 ---------------------------------------------------------
 #P Geom=AllCheck Guess=TCheck SCRF=Check MP4=FrzG4/GTBas3
 ---------------------------------------------------------

 Structure from the checkpoint file:  "/public/home/users/caep010/.cache/gau_scr/Gau-89138.chk"
 ------
 XEKWIW
 ------
 Charge =  0 Multiplicity = 1

 SCF Done:  E(RHF) =  -600.832504290     A.U. after   12 cycles
 E2 =    -0.2082090688D+01 EUMP2 =    -0.60291459497752D+03
 Normal termination of Gaussian 09 at Fri Aug 27 03:10:15 2021.

 -----------------------------------------------------------
 #P Geom=AllCheck Guess=TCheck SCRF=Check MP2=Full/GTLargeXP
 -----------------------------------------------------------

 Structure from the checkpoint file:  "/public/home/users/caep010/.cache/gau_scr/Gau-89138.chk"
 ------
 XEKWIW
 ------
 Charge =  0 Multiplicity = 1

 SCF Done:  E(RHF) =  -600.979177801     A.U. after   14 cycles
 E2 =    -0.2734200541D+01 EUMP2 =    -0.60371337834222D+03
 Normal termination of Gaussian 09 at Fri Aug 27 03:24:02 2021.
 SCF Done:  E(RHF) =  -601.026693937     A.U. after    9 cycles
 Normal termination of Gaussian 09 at Fri Aug 27 03:28:28 2021.

                         Standard orientation:
 ---------------------------------------------------------------------
 Center     Atomic      Atomic             Coordinates (Angstroms)
 Number     Number       Type             X           Y           Z
 ---------------------------------------------------------------------
      1          6           0        0.626325   -1.128738   -0.000063
      2          1           0        1.077353   -2.111713   -0.000132
      3          6           0        1.444394   -0.003143    0.000003
      4          7           0        2.902836   -0.180712   -0.000037
      5          8           0        3.596664    0.828582   -0.000417
      6          8           0        3.334197   -1.327155    0.000311
      7          6           0       -0.748904   -0.961327   -0.000043
      8          1           0       -1.404222   -1.824702   -0.000141
      9          6           0       -1.298455    0.329697    0.000083
     10          7           0       -2.669298    0.542436    0.000096
     11          6           0       -3.703288   -0.080865   -0.000033
     12          8           0       -4.766894   -0.563716   -0.000154
     13          6           0        0.918828    1.284385    0.000123
     14          1           0        1.591489    2.131194    0.000187
     15          6           0       -0.457590    1.448942    0.000175
     16          1           0       -0.898981    2.437761    0.000291
 ---------------------------------------------------------------------

 SCF Done:  E(RHF) =  -601.035632576     A.U. after    7 cycles

 The electronic state is 1-A.
 Alpha  occ. eigenvalues --  -20.63847 -20.60546 -20.60538 -15.85937 -15.62338
 Alpha  occ. eigenvalues --  -11.43601 -11.34672 -11.31716 -11.28947 -11.28848
 Alpha  occ. eigenvalues --  -11.27876 -11.27495  -1.61050  -1.49176  -1.40451
 Alpha  occ. eigenvalues --   -1.32128  -1.20878  -1.10707  -1.06917  -0.99000
 Alpha  occ. eigenvalues --   -0.89034  -0.87111  -0.79846  -0.78957  -0.75151
 Alpha  occ. eigenvalues --   -0.73864  -0.72619  -0.69819  -0.68451  -0.66629
 Alpha  occ. eigenvalues --   -0.65378  -0.63841  -0.61877  -0.57309  -0.55293
 Alpha  occ. eigenvalues --   -0.50358  -0.50292  -0.49711  -0.48275  -0.46183
 Alpha  occ. eigenvalues --   -0.38612  -0.36362
 Alpha virt. eigenvalues --    0.02294   0.02908   0.03462   0.04011   0.04384
 Alpha virt. eigenvalues --    0.05503   0.06094   0.06352   0.06947   0.07265
 Alpha virt. eigenvalues --    0.07724   0.07823   0.08262   0.09004   0.09172

 Mulliken charges:
               1
     1  C   -0.160042
     2  H    0.266834
     3  C    0.102167
     4  N    0.517554
     5  O   -0.432931
     6  O   -0.434390
     7  C   -0.241714
     8  H    0.213303
     9  C    0.244611
    10  N   -0.299835
    11  C    0.583751
    12  O   -0.469289
    13  C   -0.184383
    14  H    0.268541
    15  C   -0.208583
    16  H    0.234409
 Sum of Mulliken charges =  -0.00000

 Dipole moment (field-independent basis, Debye):
    X=             -2.9220    Y=              0.5560    Z=              0.0002  Tot=              2.9744
 Quadrupole moment (field-independent basis, Debye-Ang):
   XX=            -97.0988   YY=            -62.9979   ZZ=            -68.1507
   XY=              0.6524   XZ=              0.0001   YZ=              0.0023

 Normal termination of Gaussian 09 at Fri Aug 27 03:58:25 2021.
