 Gaussian 09, Revision E.01,
 Gaussian 09:  ES64L-G09RevE.01 30-Nov-2015

 ----------------
 #P G4 OPT=calcfc
 ----------------

 ------
 XUCJEM
 ------
 Symbolic Z-matrix:
 Charge =  0 Multiplicity = 1

 SCF Done:  E(RB3LYP) =  -469.976222936     A.U. after   15 cycles
 SCF Done:  E(RB3LYP) =  -470.042079574     A.U. after   13 cycles
 SCF Done:  E(RB3LYP) =  -470.060257995     A.U. after   14 cycles
 SCF Done:  E(RB3LYP) =  -470.060907247     A.U. after   13 cycles
 SCF Done:  E(RB3LYP) =  -470.060929942     A.U. after   12 cycles
 SCF Done:  E(RB3LYP) =  -470.060932169     A.U. after    9 cycles
 SCF Done:  E(RB3LYP) =  -470.060932560     A.U. after    8 cycles
 SCF Done:  E(RB3LYP) =  -470.060932598     A.U. after    7 cycles
 Optimization completed.
    -- Stationary point found.
 Normal termination of Gaussian 09 at Fri Aug 27 00:36:21 2021.

 ----------------------------------------------------------
 #P Geom=AllCheck Guess=TCheck SCRF=Check B3LYP/GTBas3 Freq
 ----------------------------------------------------------

 Structure from the checkpoint file:  "/public/home/users/caep010/.cache/gau_scr/Gau-211698.chk"
 ------
 XUCJEM
 ------
 Charge =  0 Multiplicity = 1

 SCF Done:  E(RB3LYP) =  -470.060932598     A.U. after    1 cycles

  Exact polarizability:  98.489   1.485  73.065   0.000   0.000  36.700
 Approx polarizability: 145.393   9.744 144.244   0.000  -0.001  57.727

                      1                      2                      3
                      A                      A                      A
 Frequencies --     59.6138                78.5835               154.7421
 Red. masses --      1.3389                 3.2377                 3.8088
 Frc consts  --      0.0028                 0.0118                 0.0537
 IR Inten    --      0.0691                 0.9799                 0.1160

                      4                      5                      6
                      A                      A                      A
 Frequencies --    192.2989               277.5193               354.7058
 Red. masses --      5.6768                 5.0791                 3.7083
 Frc consts  --      0.1237                 0.2305                 0.2749
 IR Inten    --      0.7156                 0.9417                 0.1183

                      7                      8                      9
                      A                      A                      A
 Frequencies --    422.6299               554.9344               624.0588
 Red. masses --      7.9582                 7.5087                 3.5151
 Frc consts  --      0.8375                 1.3624                 0.8066
 IR Inten    --      2.1437                 0.2444                 2.2300

                     10                     11                     12
                      A                      A                      A
 Frequencies --    670.7028               695.5866               768.6781
 Red. masses --      4.7849                 4.5035                 1.8500
 Frc consts  --      1.2682                 1.2838                 0.6441
 IR Inten    --     14.8713                 2.5111                14.7729

                     13                     14                     15
                      A                      A                      A
 Frequencies --    807.7262               839.7301               850.0656
 Red. masses --      2.7536                12.7585                 1.5645
 Frc consts  --      1.0585                 5.3006                 0.6661
 IR Inten    --      3.0862                55.7717                18.0303

                     16                     17                     18
                      A                      A                      A
 Frequencies --    997.5904              1058.8768              1080.4187
 Red. masses --      5.0191                 4.5745                 1.4636
 Frc consts  --      2.9429                 3.0219                 1.0066
 IR Inten    --     13.4450                15.7937                 3.6665

                     19                     20                     21
                      A                      A                      A
 Frequencies --   1144.7002              1151.7552              1261.2017
 Red. masses --      1.7306                 1.3172                 1.3288
 Frc consts  --      1.3361                 1.0295                 1.2453
 IR Inten    --     27.7112                 0.0075                10.7541

                     22                     23                     24
                      A                      A                      A
 Frequencies --   1334.2002              1368.4478              1392.7707
 Red. masses --      9.9809                 4.6832                 8.7765
 Frc consts  --     10.4679                 5.1671                10.0307
 IR Inten    --     61.9937                84.3805               103.0360

                     25                     26                     27
                      A                      A                      A
 Frequencies --   1440.4996              1460.4533              1483.6820
 Red. masses --      4.9661                 1.4463                 1.0393
 Frc consts  --      6.0715                 1.8176                 1.3480
 IR Inten    --     55.7421                34.9847                 8.2148

                     28                     29                     30
                      A                      A                      A
 Frequencies --   1509.3330              1541.2037              1559.3564
 Red. masses --      1.1916                 3.4887                 4.0731
 Frc consts  --      1.5994                 4.8823                 5.8354
 IR Inten    --     17.3535                45.2800                26.4522

                     31                     32                     33
                      A                      A                      A
 Frequencies --   1637.6618              3052.8811              3121.7378
 Red. masses --     13.8829                 1.0334                 1.1051
 Frc consts  --     21.9370                 5.6744                 6.3452
 IR Inten    --    231.4425                31.7904                 9.3088

                     34                     35                     36
                      A                      A                      A
 Frequencies --   3148.7526              3252.0850              3301.0031
 Red. masses --      1.1027                 1.0967                 1.0999
 Frc consts  --      6.4415                 6.8336                 7.0617
 IR Inten    --      4.8555                 0.4680                 5.8056

 - Thermochemistry -
 -------------------
 Temperature   298.150 Kelvin.  Pressure   1.00000 Atm.
 Atom     1 has atomic number  8 and mass  15.99491

 Molecular mass:   127.03818 amu.
 Principal axes and moments of inertia in atomic units:
                           1         2         3
     Eigenvalues --   392.707081633.058172014.33950
           X            0.99992   0.01225   0.00000
           Y           -0.01225   0.99992   0.00000
           Z           -0.00000  -0.00000   1.00000
 This molecule is an asymmetric top.
 Rotational symmetry number  1.
 Rotational temperatures (Kelvin)      0.22056     0.05304     0.04300
 Rotational constants (GHZ):           4.59564     1.10513     0.89595
 Zero-point vibrational energy     267067.4 (Joules/Mol)
                                   63.83065 (Kcal/Mol)
 Warning -- explicit consideration of   8 degrees of freedom as
           vibrations may cause significant error
 Vibrational temperatures:     85.77   113.06   222.64   276.67   399.29
          (Kelvin)            510.34   608.07   798.43   897.88   964.99
                             1000.79  1105.95  1162.14  1208.18  1223.05
                             1435.31  1523.49  1554.48  1646.97  1657.12
                             1814.59  1919.61  1968.89  2003.88  2072.55
                             2101.26  2134.68  2171.59  2217.45  2243.56
                             2356.23  4392.41  4491.48  4530.35  4679.02
                             4749.40

 Zero-point correction=                           0.101721 (Hartree/Particle)
 Thermal correction to Energy=                    0.109522
 Thermal correction to Enthalpy=                  0.110466
 Thermal correction to Gibbs Free Energy=         0.068292
 Sum of electronic and zero-point Energies=           -469.959212
 Sum of electronic and thermal Energies=              -469.951410
 Sum of electronic and thermal Enthalpies=            -469.950466
 Sum of electronic and thermal Free Energies=         -469.992641

                     E (Thermal)             CV                S
                      KCal/Mol        Cal/Mol-Kelvin    Cal/Mol-Kelvin
 Total                   68.726             27.189             88.764
 Electronic               0.000              0.000              0.000
 Translational            0.889              2.981             40.431
 Rotational               0.889              2.981             28.648
 Vibrational             66.949             21.227             19.684
 Vibration     1          0.597              1.974              4.470
 Vibration     2          0.600              1.964              3.926
 Vibration     3          0.620              1.897              2.613
 Vibration     4          0.634              1.851              2.206
 Vibration     5          0.678              1.715              1.549
 Vibration     6          0.731              1.566              1.145
 Vibration     7          0.785              1.421              0.883
 Vibration     8          0.910              1.129              0.534

 Optimization completed.
    -- Stationary point found.
 Normal termination of Gaussian 09 at Fri Aug 27 00:37:20 2021.

 -----------------------------------------------------------------
 #P Geom=AllCheck Guess=TCheck SCRF=Check CCSD(T,E4T,FrzG4)/GTBas1
 -----------------------------------------------------------------

 Structure from the checkpoint file:  "/public/home/users/caep010/.cache/gau_scr/Gau-211698.chk"
 ------
 XUCJEM
 ------
 Charge =  0 Multiplicity = 1

 SCF Done:  E(RHF) =  -467.311747948     A.U. after   15 cycles
 E2 =    -0.1378128096D+01 EUMP2 =    -0.46868987604353D+03
 CCSD(T)
 CCSD(T)= -0.46876606433D+03
 \CCSD=-468.7059095\CCSD(T)=-468.7660643\RMSD=7.130e-09\PG=C01 [X(C4H5N
 Normal termination of Gaussian 09 at Fri Aug 27 00:47:31 2021.

 ---------------------------------------------------------
 #P Geom=AllCheck Guess=TCheck SCRF=Check MP4=FrzG4/GTBas2
 ---------------------------------------------------------

 Structure from the checkpoint file:  "/public/home/users/caep010/.cache/gau_scr/Gau-211698.chk"
 ------
 XUCJEM
 ------
 Charge =  0 Multiplicity = 1

 SCF Done:  E(RHF) =  -467.325081700     A.U. after   14 cycles
 E2 =    -0.1395829376D+01 EUMP2 =    -0.46872091107609D+03
 Normal termination of Gaussian 09 at Fri Aug 27 00:50:33 2021.

 ---------------------------------------------------------
 #P Geom=AllCheck Guess=TCheck SCRF=Check MP4=FrzG4/GTBas3
 ---------------------------------------------------------

 Structure from the checkpoint file:  "/public/home/users/caep010/.cache/gau_scr/Gau-211698.chk"
 ------
 XUCJEM
 ------
 Charge =  0 Multiplicity = 1

 SCF Done:  E(RHF) =  -467.359349813     A.U. after   13 cycles
 E2 =    -0.1643296112D+01 EUMP2 =    -0.46900264592513D+03
 Normal termination of Gaussian 09 at Fri Aug 27 01:12:28 2021.

 -----------------------------------------------------------
 #P Geom=AllCheck Guess=TCheck SCRF=Check MP2=Full/GTLargeXP
 -----------------------------------------------------------

 Structure from the checkpoint file:  "/public/home/users/caep010/.cache/gau_scr/Gau-211698.chk"
 ------
 XUCJEM
 ------
 Charge =  0 Multiplicity = 1

 SCF Done:  E(RHF) =  -467.476904643     A.U. after   14 cycles
 E2 =    -0.2142515697D+01 EUMP2 =    -0.46961942034011D+03
 Normal termination of Gaussian 09 at Fri Aug 27 01:19:13 2021.
 SCF Done:  E(RHF) =  -467.513582398     A.U. after    9 cycles
 Normal termination of Gaussian 09 at Fri Aug 27 01:24:12 2021.

                         Standard orientation:
 ---------------------------------------------------------------------
 Center     Atomic      Atomic             Coordinates (Angstroms)
 Number     Number       Type             X           Y           Z
 ---------------------------------------------------------------------
      1          8           0        2.177202   -1.364322    0.000019
      2          7           0        1.871632   -0.171730   -0.000003
      3          8           0        2.654492    0.763293   -0.000035
      4          6           0        0.456658    0.117352    0.000006
      5          7           0       -0.036668    1.384388    0.000012
      6          6           0       -0.538745   -0.829452    0.000006
      7          7           0       -1.697772   -0.104838    0.000021
      8          1           0       -0.509226   -1.904604    0.000014
      9          6           0       -3.051398   -0.634389   -0.000032
     10          1           0       -3.754270    0.200013    0.000519
     11          1           0       -3.226662   -1.243541    0.890576
     12          1           0       -3.226973   -1.242648   -0.891190
     13          6           0       -1.336729    1.219324    0.000014
     14          1           0       -2.075487    2.007266    0.000034
 ---------------------------------------------------------------------

 SCF Done:  E(RHF) =  -467.520818116     A.U. after    7 cycles

 The electronic state is 1-A.
 Alpha  occ. eigenvalues --  -20.59349 -20.58430 -15.84495 -15.66143 -15.58276
 Alpha  occ. eigenvalues --  -11.32874 -11.31758 -11.31272 -11.30902  -1.59463
 Alpha  occ. eigenvalues --   -1.38897  -1.38794  -1.23189  -1.08976  -1.02647
 Alpha  occ. eigenvalues --   -0.95447  -0.83233  -0.81495  -0.77782  -0.71619
 Alpha  occ. eigenvalues --   -0.71536  -0.70085  -0.67993  -0.64415  -0.63155
 Alpha  occ. eigenvalues --   -0.60208  -0.58695  -0.49080  -0.48679  -0.47863
 Alpha  occ. eigenvalues --   -0.44497  -0.42665  -0.36004
 Alpha virt. eigenvalues --    0.01715   0.03319   0.03451   0.04293   0.05595
 Alpha virt. eigenvalues --    0.06015   0.06657   0.06700   0.07217   0.08510
 Alpha virt. eigenvalues --    0.08903   0.09347   0.09712   0.10544   0.11968

 Mulliken charges:
               1
     1  O   -0.459950
     2  N    0.493420
     3  O   -0.378942
     4  C    0.235010
     5  N   -0.456215
     6  C   -0.171956
     7  N    0.132776
     8  H    0.268570
     9  C   -0.529755
    10  H    0.198650
    11  H    0.206185
    12  H    0.206181
    13  C    0.033861
    14  H    0.222163
 Sum of Mulliken charges =  -0.00000

 Dipole moment (field-independent basis, Debye):
    X=             -8.5996    Y=             -1.5846    Z=              0.0000  Tot=              8.7444
 Quadrupole moment (field-independent basis, Debye-Ang):
   XX=            -50.2769   YY=            -53.9846   ZZ=            -51.5968
   XY=              0.6583   XZ=             -0.0000   YZ=              0.0001

 Normal termination of Gaussian 09 at Fri Aug 27 01:39:47 2021.
