 Gaussian 09, Revision E.01,
 Gaussian 09:  ES64L-G09RevE.01 30-Nov-2015

 ----------------
 #P G4 OPT=calcfc
 ----------------

 ------
 YALQEK
 ------
 Symbolic Z-matrix:
 Charge =  0 Multiplicity = 1

 SCF Done:  E(RB3LYP) =  -541.349018715     A.U. after   14 cycles
 SCF Done:  E(RB3LYP) =  -541.422606269     A.U. after   14 cycles
 SCF Done:  E(RB3LYP) =  -541.440748178     A.U. after   14 cycles
 SCF Done:  E(RB3LYP) =  -541.441380211     A.U. after   13 cycles
 SCF Done:  E(RB3LYP) =  -541.441486427     A.U. after   12 cycles
 SCF Done:  E(RB3LYP) =  -541.441504514     A.U. after   11 cycles
 SCF Done:  E(RB3LYP) =  -541.441508446     A.U. after   10 cycles
 SCF Done:  E(RB3LYP) =  -541.441509429     A.U. after    8 cycles
 SCF Done:  E(RB3LYP) =  -541.400576266     A.U. after   14 cycles
 SCF Done:  E(RB3LYP) =  -541.441509435     A.U. after    8 cycles
 SCF Done:  E(RB3LYP) =  -541.441847235     A.U. after   10 cycles
 SCF Done:  E(RB3LYP) =  -541.441849226     A.U. after   10 cycles
 SCF Done:  E(RB3LYP) =  -541.441849341     A.U. after    7 cycles
 Optimization completed.
    -- Stationary point found.
 Normal termination of Gaussian 09 at Wed Aug 25 06:48:41 2021.

 ----------------------------------------------------------
 #P Geom=AllCheck Guess=TCheck SCRF=Check B3LYP/GTBas3 Freq
 ----------------------------------------------------------

 Structure from the checkpoint file:  "/public/home/users/caep010/.cache/gau_scr/Gau-24379.chk"
 ------
 YALQEK
 ------
 Charge =  0 Multiplicity = 1

 SCF Done:  E(RB3LYP) =  -541.441849341     A.U. after    1 cycles

  Exact polarizability: 105.960   0.768  86.754  -0.023   0.365  38.844
 Approx polarizability: 168.934  -0.723 164.999  -0.183   0.326  61.442

                      1                      2                      3
                      A                      A                      A
 Frequencies --     69.3163                88.1600               159.8775
 Red. masses --      1.1665                 6.9174                 3.6110
 Frc consts  --      0.0033                 0.0317                 0.0544
 IR Inten    --      0.0539                 0.0292                 2.0567

                      4                      5                      6
                      A                      A                      A
 Frequencies --    204.3822               218.8758               294.5609
 Red. masses --      6.2380                 6.5161                 2.9328
 Frc consts  --      0.1535                 0.1839                 0.1499
 IR Inten    --      0.4990                 5.2772                 9.4007

                      7                      8                      9
                      A                      A                      A
 Frequencies --    355.8106               406.3781               411.4563
 Red. masses --      2.7678                 3.5944                 1.7606
 Frc consts  --      0.2065                 0.3497                 0.1756
 IR Inten    --     29.6262                 4.4726               181.4041

                     10                     11                     12
                      A                      A                      A
 Frequencies --    438.1515               499.7875               602.0319
 Red. masses --      7.3944                 1.2234                 4.3720
 Frc consts  --      0.8364                 0.1800                 0.9336
 IR Inten    --      5.0830                61.4538                 0.9756

                     13                     14                     15
                      A                      A                      A
 Frequencies --    658.7345               661.4055               722.8098
 Red. masses --      7.6441                 5.3156                12.5004
 Frc consts  --      1.9543                 1.3701                 3.8479
 IR Inten    --      5.4105                 9.7936                 0.7219

                     16                     17                     18
                      A                      A                      A
 Frequencies --    799.4508               802.2262               884.7851
 Red. masses --     10.6305                10.8835                 8.3880
 Frc consts  --      4.0030                 4.1268                 3.8688
 IR Inten    --     12.1872                17.0456                29.0343

                     19                     20                     21
                      A                      A                      A
 Frequencies --   1020.4621              1073.9398              1129.0253
 Red. masses --      8.0538                 1.7146                 1.7297
 Frc consts  --      4.9413                 1.1651                 1.2990
 IR Inten    --      1.8639                 2.9924                34.1439

                     22                     23                     24
                      A                      A                      A
 Frequencies --   1149.9754              1242.5035              1334.0008
 Red. masses --      1.3147                 6.8196                 8.0817
 Frc consts  --      1.0243                 6.2031                 8.4736
 IR Inten    --      0.0850                10.1252               159.1544

                     25                     26                     27
                      A                      A                      A
 Frequencies --   1376.8587              1393.0011              1444.4390
 Red. masses --      5.3169                11.9181                 2.0586
 Frc consts  --      5.9386                13.6257                 2.5306
 IR Inten    --    184.7579                87.5660                 1.1657

                     28                     29                     30
                      A                      A                      A
 Frequencies --   1455.3908              1474.1531              1493.9800
 Red. masses --      1.9144                 1.0412                 1.7276
 Frc consts  --      2.3891                 1.3331                 2.2719
 IR Inten    --      0.9978                 8.8379                48.1056

                     31                     32                     33
                      A                      A                      A
 Frequencies --   1526.6896              1557.1453              1627.1593
 Red. masses --      2.0917                 2.0491                 3.2777
 Frc consts  --      2.8725                 2.9273                 5.1130
 IR Inten    --     19.3803                97.6578                84.1288

                     34                     35                     36
                      A                      A                      A
 Frequencies --   1663.8088              3063.4594              3133.2834
 Red. masses --      4.5757                 1.0334                 1.1047
 Frc consts  --      7.4630                 5.7140                 6.3899
 IR Inten    --    420.2343                25.6111                 6.4327

                     37                     38                     39
                      A                      A                      A
 Frequencies --   3185.6754              3585.1161              3713.8856
 Red. masses --      1.1032                 1.0450                 1.1026
 Frc consts  --      6.5966                 7.9137                 8.9603
 IR Inten    --      0.4816                54.2843                69.2775

 - Thermochemistry -
 -------------------
 Temperature   298.150 Kelvin.  Pressure   1.00000 Atm.
 Atom     1 has atomic number  7 and mass  14.00307

 Molecular mass:   143.04432 amu.
 Principal axes and moments of inertia in atomic units:
                           1         2         3
     Eigenvalues --   744.939331585.114302317.43071
           X            0.99870   0.05103   0.00023
           Y           -0.05103   0.99869   0.00438
           Z           -0.00001  -0.00439   0.99999
 This molecule is an asymmetric top.
 Rotational symmetry number  1.
 Warning -- assumption of classical behavior for rotation
           may cause significant error
 Rotational temperatures (Kelvin)      0.11627     0.05464     0.03737
 Rotational constants (GHZ):           2.42267     1.13856     0.77877
 Zero-point vibrational energy     280656.8 (Joules/Mol)
                                   67.07858 (Kcal/Mol)
 Warning -- explicit consideration of  12 degrees of freedom as
           vibrations may cause significant error
 Vibrational temperatures:     99.73   126.84   230.03   294.06   314.91
          (Kelvin)            423.81   511.93   584.69   591.99   630.40
                              719.08   866.19   947.77   951.61  1039.96
                             1150.23  1154.22  1273.01  1468.22  1545.16
                             1624.41  1654.56  1787.68  1919.33  1980.99
                             2004.22  2078.22  2093.98  2120.97  2149.50
                             2196.56  2240.38  2341.12  2393.85  4407.63
                             4508.09  4583.47  5158.18  5343.45

 Zero-point correction=                           0.106897 (Hartree/Particle)
 Thermal correction to Energy=                    0.115791
 Thermal correction to Enthalpy=                  0.116736
 Thermal correction to Gibbs Free Energy=         0.072523
 Sum of electronic and zero-point Energies=           -541.334953
 Sum of electronic and thermal Energies=              -541.326058
 Sum of electronic and thermal Enthalpies=            -541.325114
 Sum of electronic and thermal Free Energies=         -541.369326

                     E (Thermal)             CV                S
                      KCal/Mol        Cal/Mol-Kelvin    Cal/Mol-Kelvin
 Total                   72.660             31.905             93.052
 Electronic               0.000              0.000              0.000
 Translational            0.889              2.981             40.785
 Rotational               0.889              2.981             29.394
 Vibrational             70.883             25.943             22.873
 Vibration     1          0.598              1.969              4.173
 Vibration     2          0.601              1.958              3.700
 Vibration     3          0.622              1.892              2.551
 Vibration     4          0.640              1.834              2.093
 Vibration     5          0.647              1.812              1.968
 Vibration     6          0.689              1.684              1.448
 Vibration     7          0.731              1.563              1.140
 Vibration     8          0.771              1.456              0.940
 Vibration     9          0.775              1.445              0.921
 Vibration    10          0.798              1.387              0.832
 Vibration    11          0.855              1.250              0.659
 Vibration    12          0.960              1.027              0.446

 Optimization completed.
    -- Stationary point found.
 Normal termination of Gaussian 09 at Wed Aug 25 06:50:01 2021.

 -----------------------------------------------------------------
 #P Geom=AllCheck Guess=TCheck SCRF=Check CCSD(T,E4T,FrzG4)/GTBas1
 -----------------------------------------------------------------

 Structure from the checkpoint file:  "/public/home/users/caep010/.cache/gau_scr/Gau-24379.chk"
 ------
 YALQEK
 ------
 Charge =  0 Multiplicity = 1

 SCF Done:  E(RHF) =  -538.303108127     A.U. after   15 cycles
 E2 =    -0.1587696355D+01 EUMP2 =    -0.53989080448253D+03
 CCSD(T)
 CCSD(T)= -0.53996847198D+03
 Normal termination of Gaussian 09 at Wed Aug 25 07:07:36 2021.

 ---------------------------------------------------------
 #P Geom=AllCheck Guess=TCheck SCRF=Check MP4=FrzG4/GTBas2
 ---------------------------------------------------------

 Structure from the checkpoint file:  "/public/home/users/caep010/.cache/gau_scr/Gau-24379.chk"
 ------
 YALQEK
 ------
 Charge =  0 Multiplicity = 1

 SCF Done:  E(RHF) =  -538.319179355     A.U. after   14 cycles
 E2 =    -0.1609926934D+01 EUMP2 =    -0.53992910628907D+03
 Normal termination of Gaussian 09 at Wed Aug 25 07:15:43 2021.

 ---------------------------------------------------------
 #P Geom=AllCheck Guess=TCheck SCRF=Check MP4=FrzG4/GTBas3
 ---------------------------------------------------------

 Structure from the checkpoint file:  "/public/home/users/caep010/.cache/gau_scr/Gau-24379.chk"
 ------
 YALQEK
 ------
 Charge =  0 Multiplicity = 1

 SCF Done:  E(RHF) =  -538.361868956     A.U. after   13 cycles
 E2 =    -0.1887547095D+01 EUMP2 =    -0.54024941605178D+03
 Normal termination of Gaussian 09 at Wed Aug 25 08:04:24 2021.

 -----------------------------------------------------------
 #P Geom=AllCheck Guess=TCheck SCRF=Check MP2=Full/GTLargeXP
 -----------------------------------------------------------

 Structure from the checkpoint file:  "/public/home/users/caep010/.cache/gau_scr/Gau-24379.chk"
 ------
 YALQEK
 ------
 Charge =  0 Multiplicity = 1

 SCF Done:  E(RHF) =  -538.499098053     A.U. after   14 cycles
 E2 =    -0.2449933925D+01 EUMP2 =    -0.54094903197816D+03
 Normal termination of Gaussian 09 at Wed Aug 25 08:13:30 2021.
 SCF Done:  E(RHF) =  -538.541548460     A.U. after   10 cycles
 Normal termination of Gaussian 09 at Wed Aug 25 08:16:46 2021.

                         Standard orientation:
 ---------------------------------------------------------------------
 Center     Atomic      Atomic             Coordinates (Angstroms)
 Number     Number       Type             X           Y           Z
 ---------------------------------------------------------------------
      1          7           0        1.713919   -0.656239    0.001670
      2          8           0        2.567389    0.242976    0.040591
      3          8           0        1.957360   -1.851747   -0.019232
      4          6           0        0.360577   -0.218006   -0.013687
      5          7           0       -0.675684   -1.065295   -0.004896
      6          7           0       -1.707549   -0.265631    0.003930
      7          7           0       -1.452578    1.055555    0.000790
      8          6           0       -0.115917    1.116452   -0.014165
      9          7           0        0.589489    2.272959   -0.071801
     10          1           0        0.113498    3.116439    0.202460
     11          1           0        1.571428    2.187207    0.141245
     12          6           0       -3.069888   -0.760676    0.015137
     13          1           0       -3.586040   -0.392080    0.904572
     14          1           0       -3.023345   -1.847971    0.025215
     15          1           0       -3.595340   -0.409485   -0.875926
 ---------------------------------------------------------------------

 SCF Done:  E(RHF) =  -538.549954097     A.U. after    8 cycles

 The electronic state is 1-A.
 Alpha  occ. eigenvalues --  -20.60603 -20.59853 -15.86153 -15.72061 -15.66275
 Alpha  occ. eigenvalues --  -15.61760 -15.59094 -11.34782 -11.32427 -11.30022
 Alpha  occ. eigenvalues --   -1.60729  -1.48635  -1.39961  -1.27207  -1.21862
 Alpha  occ. eigenvalues --   -1.15339  -1.06033  -0.93873  -0.85600  -0.84584
 Alpha  occ. eigenvalues --   -0.78381  -0.73850  -0.73436  -0.72062  -0.70066
 Alpha  occ. eigenvalues --   -0.69786  -0.66027  -0.60140  -0.59891  -0.54643
 Alpha  occ. eigenvalues --   -0.52260  -0.51574  -0.50428  -0.48751  -0.45916
 Alpha  occ. eigenvalues --   -0.42329  -0.35231
 Alpha virt. eigenvalues --    0.02720   0.03422   0.03870   0.04626   0.05225
 Alpha virt. eigenvalues --    0.06139   0.06746   0.07092   0.07595   0.07687
 Alpha virt. eigenvalues --    0.08850   0.10740   0.11200   0.12025   0.12206

 Mulliken charges:
               1
     1  N    0.473428
     2  O   -0.451708
     3  O   -0.397267
     4  C    0.259224
     5  N   -0.319473
     6  N    0.403649
     7  N   -0.452994
     8  C    0.390648
     9  N   -0.715979
    10  H    0.337969
    11  H    0.358672
    12  C   -0.540107
    13  H    0.209331
    14  H    0.234792
    15  H    0.209816
 Sum of Mulliken charges =  -0.00000

 Dipole moment (field-independent basis, Debye):
    X=             -4.6334    Y=              2.1206    Z=              0.6973  Tot=              5.1431
 Quadrupole moment (field-independent basis, Debye-Ang):
   XX=            -56.9050   YY=            -56.7082   ZZ=            -56.9401
   XY=              9.1976   XZ=              0.4325   YZ=              2.1476

 Normal termination of Gaussian 09 at Wed Aug 25 08:39:37 2021.
