 Gaussian 09, Revision E.01,
 Gaussian 09:  ES64L-G09RevE.01 30-Nov-2015

 ----------------
 #P G4 OPT=calcfc
 ----------------

 ------
 YOVJUP
 ------
 Symbolic Z-matrix:
 Charge =  0 Multiplicity = 1

 SCF Done:  E(RB3LYP) =  -547.372713643     A.U. after   15 cycles
 SCF Done:  E(RB3LYP) =  -547.468330428     A.U. after   13 cycles
 SCF Done:  E(RB3LYP) =  -547.508461962     A.U. after   14 cycles
 SCF Done:  E(RB3LYP) =  -547.509838370     A.U. after   13 cycles
 SCF Done:  E(RB3LYP) =  -547.509967473     A.U. after   13 cycles
 SCF Done:  E(RB3LYP) =  -547.510010942     A.U. after   12 cycles
 SCF Done:  E(RB3LYP) =  -547.510016067     A.U. after   11 cycles
 SCF Done:  E(RB3LYP) =  -547.510017440     A.U. after   10 cycles
 SCF Done:  E(RB3LYP) =  -547.510018461     A.U. after   11 cycles
 SCF Done:  E(RB3LYP) =  -547.510019393     A.U. after   11 cycles
 SCF Done:  E(RB3LYP) =  -547.510019589     A.U. after    9 cycles
 SCF Done:  E(RB3LYP) =  -547.510019620     A.U. after    7 cycles
 Optimization completed.
    -- Stationary point found.
 Normal termination of Gaussian 09 at Thu Aug 26 17:49:17 2021.

 ----------------------------------------------------------
 #P Geom=AllCheck Guess=TCheck SCRF=Check B3LYP/GTBas3 Freq
 ----------------------------------------------------------

 Structure from the checkpoint file:  "/public/home/users/caep010/.cache/gau_scr/Gau-108002.chk"
 ------
 YOVJUP
 ------
 Charge =  0 Multiplicity = 1

 SCF Done:  E(RB3LYP) =  -547.510019620     A.U. after    1 cycles

  Exact polarizability: 120.021  -0.035 120.368  -0.201  -0.444  43.941
 Approx polarizability: 207.931  -3.984 217.672  -0.102  -3.464  72.432

                      1                      2                      3
                      A                      A                      A
 Frequencies --     19.9758                89.4722               196.2187
 Red. masses --      7.8298                 6.0655                 4.0355
 Frc consts  --      0.0018                 0.0286                 0.0915
 IR Inten    --      1.3824                 0.1166                 2.9430

                      4                      5                      6
                      A                      A                      A
 Frequencies --    260.1944               267.2005               305.0842
 Red. masses --      3.6455                 1.0716                 1.3185
 Frc consts  --      0.1454                 0.0451                 0.0723
 IR Inten    --      8.3255                 0.3225               151.8761

                      7                      8                      9
                      A                      A                      A
 Frequencies --    311.5168               370.9209               397.0535
 Red. masses --      5.1295                 4.2597                 5.2861
 Frc consts  --      0.2933                 0.3453                 0.4910
 IR Inten    --     20.6574                 2.8975                 0.7500

                     10                     11                     12
                      A                      A                      A
 Frequencies --    403.5188               494.5329               538.3099
 Red. masses --      4.0477                 3.7540                 7.1837
 Frc consts  --      0.3883                 0.5409                 1.2265
 IR Inten    --      7.8354                15.2558                 0.3369

                     13                     14                     15
                      A                      A                      A
 Frequencies --    566.0447               604.8275               609.8297
 Red. masses --      3.7963                 3.1465                 5.1719
 Frc consts  --      0.7167                 0.6782                 1.1332
 IR Inten    --      4.1561                 1.9586                 1.1293

                     16                     17                     18
                      A                      A                      A
 Frequencies --    657.9441               759.1076               804.7314
 Red. masses --      1.1171                 9.5367                 6.9949
 Frc consts  --      0.2849                 3.2378                 2.6689
 IR Inten    --      0.2543                 0.0404                 6.5246

                     19                     20                     21
                      A                      A                      A
 Frequencies --    819.1669               833.5320               878.0133
 Red. masses --      2.4351                 1.8745                 8.4947
 Frc consts  --      0.9627                 0.7673                 3.8583
 IR Inten    --     25.4199                 0.2840                25.2393

                     22                     23                     24
                      A                      A                      A
 Frequencies --    993.9891               997.8667              1015.8171
 Red. masses --      2.2904                 1.4182                 1.7989
 Frc consts  --      1.3333                 0.8320                 1.0937
 IR Inten    --      3.4448                 0.0702                 2.9631

                     25                     26                     27
                      A                      A                      A
 Frequencies --   1059.0536              1087.1126              1118.9280
 Red. masses --      1.5855                 3.1792                 3.0409
 Frc consts  --      1.0478                 2.2137                 2.2432
 IR Inten    --      4.1769                26.8827                12.4626

                     28                     29                     30
                      A                      A                      A
 Frequencies --   1172.8647              1279.8812              1298.5949
 Red. masses --      1.6991                 2.4503                 4.0865
 Frc consts  --      1.3771                 2.3649                 4.0602
 IR Inten    --      1.0293                23.6715               197.7853

                     31                     32                     33
                      A                      A                      A
 Frequencies --   1356.0846              1384.5782              1414.1923
 Red. masses --      5.4832                 2.1447                 1.1974
 Frc consts  --      5.9409                 2.4225                 1.4109
 IR Inten    --    120.9946                69.5880                 3.7994

                     34                     35                     36
                      A                      A                      A
 Frequencies --   1454.3059              1473.8802              1476.9099
 Red. masses --      2.0739                 1.1693                 2.0559
 Frc consts  --      2.5844                 1.4966                 2.6422
 IR Inten    --      3.8824                21.8861                71.4687

                     37                     38                     39
                      A                      A                      A
 Frequencies --   1487.4969              1576.7618              1598.1205
 Red. masses --      1.2854                 4.3998                 3.8241
 Frc consts  --      1.6757                 6.4448                 5.7544
 IR Inten    --     55.6501               109.5300                82.0023

                     40                     41                     42
                      A                      A                      A
 Frequencies --   1609.2944              1644.6209              3056.3942
 Red. masses --      2.9798                 7.3461                 1.0356
 Frc consts  --      4.5468                11.7068                 5.6998
 IR Inten    --     54.1239               609.9320                11.5882

                     43                     44                     45
                      A                      A                      A
 Frequencies --   3127.8934              3133.5390              3149.2295
 Red. masses --      1.0985                 1.1033                 1.0892
 Frc consts  --      6.3323                 6.3828                 6.3645
 IR Inten    --      3.3758                18.2236                21.9094

                     46                     47                     48
                      A                      A                      A
 Frequencies --   3205.6338              3584.4167              3737.0638
 Red. masses --      1.0924                 1.0431                 1.1063
 Frc consts  --      6.6138                 7.8962                 9.1028
 IR Inten    --      8.0792                87.6935               104.6346

 - Thermochemistry -
 -------------------
 Temperature   298.150 Kelvin.  Pressure   1.00000 Atm.
 Atom     1 has atomic number  8 and mass  15.99491

 Molecular mass:   153.05383 amu.
 Principal axes and moments of inertia in atomic units:
                           1         2         3
     Eigenvalues --  1161.467741431.025032576.85598
           X            0.99978   0.02084  -0.00050
           Y           -0.02084   0.99978   0.00162
           Z            0.00054  -0.00161   1.00000
 This molecule is an asymmetric top.
 Rotational symmetry number  1.
 Warning -- assumption of classical behavior for rotation
           may cause significant error
 Rotational temperatures (Kelvin)      0.07457     0.06053     0.03361
 Rotational constants (GHZ):           1.55385     1.26115     0.70037
 Zero-point vibrational energy     356976.0 (Joules/Mol)
                                   85.31930 (Kcal/Mol)
 Warning -- explicit consideration of  15 degrees of freedom as
           vibrations may cause significant error
 Vibrational temperatures:     28.74   128.73   282.31   374.36   384.44
          (Kelvin)            438.95   448.20   533.67   571.27   580.57
                              711.52   774.51   814.41   870.21   877.41
                              946.63  1092.19  1157.83  1178.60  1199.27
                             1263.26  1430.13  1435.71  1461.53  1523.74
                             1564.11  1609.89  1687.49  1841.46  1868.39
                             1951.10  1992.10  2034.70  2092.42  2120.58
                             2124.94  2140.17  2268.61  2299.34  2315.41
                             2366.24  4397.46  4500.34  4508.46  4531.03
                             4612.19  5157.17  5376.79

 Zero-point correction=                           0.135965 (Hartree/Particle)
 Thermal correction to Energy=                    0.145436
 Thermal correction to Enthalpy=                  0.146380
 Thermal correction to Gibbs Free Energy=         0.100293
 Sum of electronic and zero-point Energies=           -547.374055
 Sum of electronic and thermal Energies=              -547.364584
 Sum of electronic and thermal Enthalpies=            -547.363639
 Sum of electronic and thermal Free Energies=         -547.409727

                     E (Thermal)             CV                S
                      KCal/Mol        Cal/Mol-Kelvin    Cal/Mol-Kelvin
 Total                   91.262             35.999             96.999
 Electronic               0.000              0.000              0.000
 Translational            0.889              2.981             40.987
 Rotational               0.889              2.981             29.839
 Vibrational             89.485             30.037             26.173
 Vibration     1          0.593              1.986              6.637
 Vibration     2          0.602              1.957              3.672
 Vibration     3          0.636              1.845              2.168
 Vibration     4          0.668              1.745              1.660
 Vibration     5          0.672              1.733              1.614
 Vibration     6          0.696              1.664              1.389
 Vibration     7          0.700              1.652              1.354
 Vibration     8          0.743              1.532              1.076
 Vibration     9          0.764              1.476              0.974
 Vibration    10          0.769              1.463              0.950
 Vibration    11          0.850              1.262              0.672
 Vibration    12          0.893              1.165              0.569
 Vibration    13          0.922              1.105              0.512
 Vibration    14          0.963              1.022              0.441
 Vibration    15          0.969              1.011              0.433

 Normal termination of Gaussian 09 at Thu Aug 26 17:51:13 2021.

 -----------------------------------------------------------------
 #P Geom=AllCheck Guess=TCheck SCRF=Check CCSD(T,E4T,FrzG4)/GTBas1
 -----------------------------------------------------------------

 Structure from the checkpoint file:  "/public/home/users/caep010/.cache/gau_scr/Gau-108002.chk"
 ------
 YOVJUP
 ------
 Charge =  0 Multiplicity = 1

 SCF Done:  E(RHF) =  -544.234567713     A.U. after   14 cycles
 E2 =    -0.1624570918D+01 EUMP2 =    -0.54585913863058D+03
 CCSD(T)
 CCSD(T)= -0.54596279002D+03
 05\MP4SDTQ=-545.9764424\MP4SDQ=-545.8929502\CCSD=-545.8898882\CCSD(T)=
 Normal termination of Gaussian 09 at Thu Aug 26 18:31:06 2021.

 ---------------------------------------------------------
 #P Geom=AllCheck Guess=TCheck SCRF=Check MP4=FrzG4/GTBas2
 ---------------------------------------------------------

 Structure from the checkpoint file:  "/public/home/users/caep010/.cache/gau_scr/Gau-108002.chk"
 ------
 YOVJUP
 ------
 Charge =  0 Multiplicity = 1

 SCF Done:  E(RHF) =  -544.250072674     A.U. after   15 cycles
 E2 =    -0.1645728334D+01 EUMP2 =    -0.54589580100809D+03
 Normal termination of Gaussian 09 at Thu Aug 26 18:43:36 2021.

 ---------------------------------------------------------
 #P Geom=AllCheck Guess=TCheck SCRF=Check MP4=FrzG4/GTBas3
 ---------------------------------------------------------

 Structure from the checkpoint file:  "/public/home/users/caep010/.cache/gau_scr/Gau-108002.chk"
 ------
 YOVJUP
 ------
 Charge =  0 Multiplicity = 1

 SCF Done:  E(RHF) =  -544.293181390     A.U. after   13 cycles
 E2 =    -0.1942351520D+01 EUMP2 =    -0.54623553291001D+03
 Normal termination of Gaussian 09 at Thu Aug 26 20:31:44 2021.

 -----------------------------------------------------------
 #P Geom=AllCheck Guess=TCheck SCRF=Check MP2=Full/GTLargeXP
 -----------------------------------------------------------

 Structure from the checkpoint file:  "/public/home/users/caep010/.cache/gau_scr/Gau-108002.chk"
 ------
 YOVJUP
 ------
 Charge =  0 Multiplicity = 1

 SCF Done:  E(RHF) =  -544.426220013     A.U. after   14 cycles
 E2 =    -0.2544420766D+01 EUMP2 =    -0.54697064077878D+03
 Normal termination of Gaussian 09 at Thu Aug 26 20:44:34 2021.
 SCF Done:  E(RHF) =  -544.468864651     A.U. after   10 cycles
 Normal termination of Gaussian 09 at Thu Aug 26 20:49:33 2021.

                         Standard orientation:
 ---------------------------------------------------------------------
 Center     Atomic      Atomic             Coordinates (Angstroms)
 Number     Number       Type             X           Y           Z
 ---------------------------------------------------------------------
      1          8           0       -2.166420   -1.261282    0.114798
      2          7           0       -1.654753   -0.138935   -0.010505
      3          6           0       -0.210439   -0.019141    0.003506
      4          6           0        0.605294   -1.198389   -0.007742
      5          6           0        0.405861    1.254606    0.020560
      6          6           0        1.796299    1.277260    0.011577
      7          6           0        2.508127    0.081456   -0.021414
      8          6           0       -0.317576    2.575933    0.060243
      9          1           0       -1.023052    2.626766    0.892089
     10          1           0       -0.908840    2.733849   -0.844231
     11          8           0       -2.336624    0.871493   -0.149129
     12          7           0        1.952824   -1.117162   -0.029490
     13          1           0        2.322550    2.223591    0.029708
     14          1           0        3.596229    0.098361   -0.037451
     15          7           0        0.124812   -2.454321   -0.012784
     16          1           0       -0.866178   -2.610811    0.060841
     17          1           0        0.806062   -3.194118   -0.014645
     18          1           0        0.411992    3.383249    0.157422
 ---------------------------------------------------------------------

 SCF Done:  E(RHF) =  -544.477195364     A.U. after    8 cycles

 The electronic state is 1-A.
 Alpha  occ. eigenvalues --  -20.59573 -20.59289 -15.85481 -15.58479 -15.56911
 Alpha  occ. eigenvalues --  -11.36051 -11.30649 -11.30515 -11.30163 -11.24124
 Alpha  occ. eigenvalues --  -11.23914  -1.59980  -1.39071  -1.31310  -1.21510
 Alpha  occ. eigenvalues --   -1.15095  -1.07384  -0.99508  -0.94697  -0.86221
 Alpha  occ. eigenvalues --   -0.84901  -0.77160  -0.74727  -0.72597  -0.72161
 Alpha  occ. eigenvalues --   -0.71906  -0.66180  -0.64601  -0.60049  -0.58665
 Alpha  occ. eigenvalues --   -0.57534  -0.56984  -0.55523  -0.49800  -0.48986
 Alpha  occ. eigenvalues --   -0.47520  -0.45580  -0.44155  -0.40667  -0.33102
 Alpha virt. eigenvalues --    0.03151   0.03551   0.03961   0.04341   0.04996
 Alpha virt. eigenvalues --    0.05717   0.06227   0.06411   0.07215   0.08053
 Alpha virt. eigenvalues --    0.08202   0.08676   0.09435   0.09534   0.09865

 Mulliken charges:
               1
     1  O   -0.471454
     2  N    0.498960
     3  C    0.114361
     4  C    0.471235
     5  C    0.354812
     6  C   -0.292592
     7  C    0.005008
     8  C   -0.667058
     9  H    0.213951
    10  H    0.215495
    11  O   -0.444211
    12  N   -0.584727
    13  H    0.206317
    14  H    0.227291
    15  N   -0.782532
    16  H    0.390935
    17  H    0.363283
    18  H    0.180926
 Sum of Mulliken charges =  -0.00000

 Dipole moment (field-independent basis, Debye):
    X=              3.2849    Y=              0.9303    Z=              0.1663  Tot=              3.4181
 Quadrupole moment (field-independent basis, Debye-Ang):
   XX=            -71.6349   YY=            -55.1903   ZZ=            -65.4319
   XY=              2.9504   XZ=             -0.2296   YZ=              0.2552

 Normal termination of Gaussian 09 at Thu Aug 26 21:23:27 2021.
