 Gaussian 09, Revision E.01,
 Gaussian 09:  ES64L-G09RevE.01 30-Nov-2015

 ----------------
 #P G4 OPT=calcfc
 ----------------

 ------
 YUYCOK
 ------
 Symbolic Z-matrix:
 Charge =  0 Multiplicity = 1

 SCF Done:  E(RB3LYP) =  -603.093597854     A.U. after   15 cycles
 SCF Done:  E(RB3LYP) =  -603.166365500     A.U. after   13 cycles
 SCF Done:  E(RB3LYP) =  -603.182867683     A.U. after   16 cycles
 SCF Done:  E(RB3LYP) =  -603.188382659     A.U. after   14 cycles
 SCF Done:  E(RB3LYP) =  -603.188688599     A.U. after   13 cycles
 SCF Done:  E(RB3LYP) =  -603.188723421     A.U. after   10 cycles
 SCF Done:  E(RB3LYP) =  -603.188733026     A.U. after    9 cycles
 SCF Done:  E(RB3LYP) =  -603.188733878     A.U. after    8 cycles
 Optimization completed.
    -- Stationary point found.
 Normal termination of Gaussian 09 at Thu Aug 26 09:31:58 2021.

 ----------------------------------------------------------
 #P Geom=AllCheck Guess=TCheck SCRF=Check B3LYP/GTBas3 Freq
 ----------------------------------------------------------

 Structure from the checkpoint file:  "/public/home/users/caep010/.cache/gau_scr/Gau-101972.chk"
 ------
 YUYCOK
 ------
 Charge =  0 Multiplicity = 1

 SCF Done:  E(RB3LYP) =  -603.188733878     A.U. after    1 cycles

  Exact polarizability: 153.783   9.160  94.890  -0.000  -0.000  36.627
 Approx polarizability: 248.846  30.936 185.057  -0.000   0.000  59.345

                      1                      2                      3
                      A                      A                      A
 Frequencies --     63.8909                97.2975               122.9055
 Red. masses --     11.1740                 8.5764                 6.0133
 Frc consts  --      0.0269                 0.0478                 0.0535
 IR Inten    --      0.0248                 0.1720                 0.9799

                      4                      5                      6
                      A                      A                      A
 Frequencies --    143.2791               213.9933               233.2957
 Red. masses --      3.7763                 9.4443                 8.2681
 Frc consts  --      0.0457                 0.2548                 0.2651
 IR Inten    --      0.4498                 0.3496                 2.3820

                      7                      8                      9
                      A                      A                      A
 Frequencies --    365.4512               383.3267               450.1184
 Red. masses --     10.0842                 5.4558                 6.4162
 Frc consts  --      0.7935                 0.4723                 0.7659
 IR Inten    --      0.4258                 3.5673                 4.9028

                     10                     11                     12
                      A                      A                      A
 Frequencies --    470.7999               473.9729               557.6942
 Red. masses --      1.1076                 7.5596                 6.8655
 Frc consts  --      0.1446                 1.0006                 1.2581
 IR Inten    --    119.1318                 8.8484                 0.7146

                     13                     14                     15
                      A                      A                      A
 Frequencies --    605.1049               701.2308               770.1836
 Red. masses --      5.1834                 5.1871                 6.1277
 Frc consts  --      1.1182                 1.5028                 2.1416
 IR Inten    --      1.7363                 0.3028                18.3029

                     16                     17                     18
                      A                      A                      A
 Frequencies --    819.9738               820.5671               835.0984
 Red. masses --      7.3735                 1.3554                 6.6077
 Frc consts  --      2.9210                 0.5377                 2.7151
 IR Inten    --     16.0855                28.6722                47.1839

                     19                     20                     21
                      A                      A                      A
 Frequencies --    899.0307               965.4066               984.8385
 Red. masses --      1.3895                 1.4427                 7.2971
 Frc consts  --      0.6617                 0.7922                 4.1700
 IR Inten    --      3.1065                 9.9244                42.6341

                     22                     23                     24
                      A                      A                      A
 Frequencies --   1003.5892              1035.5290              1043.1093
 Red. masses --      4.7054                 5.0061                 1.4658
 Frc consts  --      2.7923                 3.1628                 0.9397
 IR Inten    --     13.2804               228.9718                65.0979

                     25                     26                     27
                      A                      A                      A
 Frequencies --   1194.0278              1263.3120              1286.2112
 Red. masses --      1.6845                 4.6532                 2.7083
 Frc consts  --      1.4150                 4.3754                 2.6398
 IR Inten    --     22.2121                43.6880                58.1409

                     28                     29                     30
                      A                      A                      A
 Frequencies --   1291.5984              1391.7073              1423.5743
 Red. masses --      1.6191                 8.5053                 4.5337
 Frc consts  --      1.5914                 9.7058                 5.4133
 IR Inten    --    144.7900               338.1436                65.1514

                     31                     32                     33
                      A                      A                      A
 Frequencies --   1432.4480              1540.6286              1605.6488
 Red. masses --      1.7697                 5.2412                 6.1906
 Frc consts  --      2.1395                 7.3296                 9.4034
 IR Inten    --      4.9654               109.4217                21.1861

                     34                     35                     36
                      A                      A                      A
 Frequencies --   1629.6740              1690.1951              3128.5699
 Red. masses --     11.9916                 6.6134                 1.0888
 Frc consts  --     18.7642                11.1313                 6.2788
 IR Inten    --    172.1715                12.7872                 9.6637

                     37                     38                     39
                      A                      A                      A
 Frequencies --   3264.7766              3290.0591              3803.8712
 Red. masses --      1.0952                 1.1008                 1.0676
 Frc consts  --      6.8778                 7.0203                 9.1015
 IR Inten    --      0.7280                 3.8563               157.2541

 - Thermochemistry -
 -------------------
 Temperature   298.150 Kelvin.  Pressure   1.00000 Atm.
 Atom     1 has atomic number  8 and mass  15.99491

 Molecular mass:   156.01711 amu.
 Principal axes and moments of inertia in atomic units:
                           1         2         3
     Eigenvalues --   649.143813071.096823720.24064
           X            0.99996   0.00900  -0.00000
           Y           -0.00900   0.99996  -0.00000
           Z            0.00000   0.00000   1.00000
 This molecule is an asymmetric top.
 Rotational symmetry number  1.
 Warning -- assumption of classical behavior for rotation
           may cause significant error
 Rotational temperatures (Kelvin)      0.13343     0.02820     0.02328
 Rotational constants (GHZ):           2.78019     0.58765     0.48511
 Zero-point vibrational energy     258967.5 (Joules/Mol)
                                   61.89472 (Kcal/Mol)
 Warning -- explicit consideration of  13 degrees of freedom as
           vibrations may cause significant error
 Vibrational temperatures:     91.92   139.99   176.83   206.15   307.89
          (Kelvin)            335.66   525.80   551.52   647.62   677.38
                              681.94   802.40   870.61  1008.91  1108.12
                             1179.76  1180.61  1201.52  1293.50  1389.00
                             1416.96  1443.94  1489.89  1500.80  1717.94
                             1817.62  1850.57  1858.32  2002.35  2048.20
                             2060.97  2216.62  2310.17  2344.73  2431.81
                             4501.31  4697.28  4733.66  5472.92

 Zero-point correction=                           0.098636 (Hartree/Particle)
 Thermal correction to Energy=                    0.107913
 Thermal correction to Enthalpy=                  0.108857
 Thermal correction to Gibbs Free Energy=         0.063145
 Sum of electronic and zero-point Energies=           -603.090098
 Sum of electronic and thermal Energies=              -603.080821
 Sum of electronic and thermal Enthalpies=            -603.079877
 Sum of electronic and thermal Free Energies=         -603.125589

                     E (Thermal)             CV                S
                      KCal/Mol        Cal/Mol-Kelvin    Cal/Mol-Kelvin
 Total                   67.716             33.412             96.209
 Electronic               0.000              0.000              0.000
 Translational            0.889              2.981             41.044
 Rotational               0.889              2.981             30.385
 Vibrational             65.939             27.451             24.780
 Vibration     1          0.597              1.972              4.333
 Vibration     2          0.603              1.951              3.508
 Vibration     3          0.610              1.930              3.054
 Vibration     4          0.616              1.910              2.760
 Vibration     5          0.644              1.820              2.009
 Vibration     6          0.654              1.790              1.853
 Vibration     7          0.739              1.543              1.099
 Vibration     8          0.753              1.506              1.026
 Vibration     9          0.809              1.361              0.795
 Vibration    10          0.828              1.315              0.735
 Vibration    11          0.831              1.308              0.727
 Vibration    12          0.913              1.123              0.528
 Vibration    13          0.964              1.021              0.441

 Optimization completed.
    -- Stationary point found.
 Normal termination of Gaussian 09 at Thu Aug 26 09:33:26 2021.

 -----------------------------------------------------------------
 #P Geom=AllCheck Guess=TCheck SCRF=Check CCSD(T,E4T,FrzG4)/GTBas1
 -----------------------------------------------------------------

 Structure from the checkpoint file:  "/public/home/users/caep010/.cache/gau_scr/Gau-101972.chk"
 ------
 YUYCOK
 ------
 Charge =  0 Multiplicity = 1

 SCF Done:  E(RHF) =  -599.775211044     A.U. after   15 cycles
 E2 =    -0.1698213584D+01 EUMP2 =    -0.60147342462834D+03
 CCSD(T)
 CCSD(T)= -0.60156211341D+03
 Q=-601.5789958\MP4SDQ=-601.4944623\CCSD=-601.4888169\CCSD(T)=-601.5621
 Normal termination of Gaussian 09 at Thu Aug 26 10:07:55 2021.

 ---------------------------------------------------------
 #P Geom=AllCheck Guess=TCheck SCRF=Check MP4=FrzG4/GTBas2
 ---------------------------------------------------------

 Structure from the checkpoint file:  "/public/home/users/caep010/.cache/gau_scr/Gau-101972.chk"
 ------
 YUYCOK
 ------
 Charge =  0 Multiplicity = 1

 SCF Done:  E(RHF) =  -599.793268553     A.U. after   16 cycles
 E2 =    -0.1722128571D+01 EUMP2 =    -0.60151539712399D+03
 Normal termination of Gaussian 09 at Thu Aug 26 10:21:03 2021.

 ---------------------------------------------------------
 #P Geom=AllCheck Guess=TCheck SCRF=Check MP4=FrzG4/GTBas3
 ---------------------------------------------------------

 Structure from the checkpoint file:  "/public/home/users/caep010/.cache/gau_scr/Gau-101972.chk"
 ------
 YUYCOK
 ------
 Charge =  0 Multiplicity = 1

 SCF Done:  E(RHF) =  -599.838596009     A.U. after   13 cycles
 E2 =    -0.2027726528D+01 EUMP2 =    -0.60186632253673D+03
 Normal termination of Gaussian 09 at Thu Aug 26 11:35:30 2021.

 -----------------------------------------------------------
 #P Geom=AllCheck Guess=TCheck SCRF=Check MP2=Full/GTLargeXP
 -----------------------------------------------------------

 Structure from the checkpoint file:  "/public/home/users/caep010/.cache/gau_scr/Gau-101972.chk"
 ------
 YUYCOK
 ------
 Charge =  0 Multiplicity = 1

 SCF Done:  E(RHF) =  -599.994613701     A.U. after   14 cycles
 E2 =    -0.2646034514D+01 EUMP2 =    -0.60264064821532D+03
 Normal termination of Gaussian 09 at Thu Aug 26 11:46:41 2021.
 SCF Done:  E(RHF) =  -600.043384274     A.U. after    9 cycles
 Normal termination of Gaussian 09 at Thu Aug 26 11:49:57 2021.

                         Standard orientation:
 ---------------------------------------------------------------------
 Center     Atomic      Atomic             Coordinates (Angstroms)
 Number     Number       Type             X           Y           Z
 ---------------------------------------------------------------------
      1          8           0        0.034338   -0.319865    0.000003
      2          6           0       -0.842903    0.717898    0.000017
      3          6           0       -0.160419    1.914102    0.000016
      4          1           0       -0.604536    2.896944    0.000027
      5          6           0        1.220099    1.592923   -0.000007
      6          1           0        2.071381    2.252647   -0.000014
      7          6           0        1.264160    0.229097   -0.000015
      8          7           0        2.384365   -0.659078   -0.000002
      9          8           0        3.489931   -0.121015   -0.000039
     10          8           0        2.164923   -1.862596    0.000044
     11          6           0       -2.257787    0.452500    0.000033
     12          1           0       -2.921478    1.317478    0.000083
     13          7           0       -2.714322   -0.744353   -0.000039
     14          8           0       -4.097179   -0.745976   -0.000035
     15          1           0       -4.310672   -1.686554    0.000127
 ---------------------------------------------------------------------

 SCF Done:  E(RHF) =  -600.052958561     A.U. after    7 cycles

 The electronic state is 1-A.
 Alpha  occ. eigenvalues --  -20.67021 -20.62479 -20.61024 -20.60313 -15.86591
 Alpha  occ. eigenvalues --  -15.65929 -11.36884 -11.35020 -11.31033 -11.29259
 Alpha  occ. eigenvalues --  -11.27901  -1.61472  -1.51558  -1.46005  -1.40599
 Alpha  occ. eigenvalues --   -1.19683  -1.14620  -1.10949  -0.98983  -0.87754
 Alpha  occ. eigenvalues --   -0.85001  -0.80742  -0.79421  -0.74578  -0.74231
 Alpha  occ. eigenvalues --   -0.72828  -0.70438  -0.67802  -0.64744  -0.63013
 Alpha  occ. eigenvalues --   -0.62265  -0.62054  -0.59632  -0.51016  -0.50401
 Alpha  occ. eigenvalues --   -0.47784  -0.46629  -0.46000  -0.44073  -0.34484
 Alpha virt. eigenvalues --    0.01570   0.02584   0.03786   0.04547   0.04755
 Alpha virt. eigenvalues --    0.05848   0.06285   0.07232   0.07339   0.07746
 Alpha virt. eigenvalues --    0.08442   0.08757   0.08971   0.10153   0.10652

 Mulliken charges:
               1
     1  O   -0.340918
     2  C    0.442690
     3  C   -0.199611
     4  H    0.229453
     5  C   -0.100071
     6  H    0.272486
     7  C    0.259052
     8  N    0.486480
     9  O   -0.446912
    10  O   -0.404058
    11  C   -0.166974
    12  H    0.213302
    13  N   -0.186581
    14  O   -0.470355
    15  H    0.412017
 Sum of Mulliken charges =  -0.00000

 Dipole moment (field-independent basis, Debye):
    X=             -3.7602    Y=              4.1086    Z=              0.0004  Tot=              5.5695
 Quadrupole moment (field-independent basis, Debye-Ang):
   XX=            -69.6666   YY=            -55.6574   ZZ=            -62.4706
   XY=              8.2849   XZ=             -0.0015   YZ=             -0.0004

 Normal termination of Gaussian 09 at Thu Aug 26 12:12:15 2021.
