 Gaussian 09, Revision E.01,
 Gaussian 09:  ES64L-G09RevE.01 30-Nov-2015

 ----------------
 #P G4 OPT=calcfc
 ----------------

 ------
 YIKBUP
 ------
 Symbolic Z-matrix:
 Charge =  0 Multiplicity = 1

 SCF Done:  E(RB3LYP) =  -791.870097955     A.U. after   15 cycles
 SCF Done:  E(RB3LYP) =  -791.912291483     A.U. after   14 cycles
 SCF Done:  E(RB3LYP) =  -791.921749133     A.U. after   16 cycles
 SCF Done:  E(RB3LYP) =  -791.891216657     A.U. after   15 cycles
 SCF Done:  E(RB3LYP) =  -791.923953058     A.U. after   12 cycles
 SCF Done:  E(RB3LYP) =  -791.925045222     A.U. after   16 cycles
 SCF Done:  E(RB3LYP) =  -791.918020661     A.U. after   16 cycles
 SCF Done:  E(RB3LYP) =  -791.925741715     A.U. after   12 cycles
 SCF Done:  E(RB3LYP) =  -791.926468994     A.U. after   13 cycles
 SCF Done:  E(RB3LYP) =  -791.926452645     A.U. after   14 cycles
 SCF Done:  E(RB3LYP) =  -791.927020072     A.U. after   10 cycles
 SCF Done:  E(RB3LYP) =  -791.927019859     A.U. after    9 cycles
 SCF Done:  E(RB3LYP) =  -791.927019807     A.U. after    8 cycles
 Optimization completed.
    -- Stationary point found.
 Normal termination of Gaussian 09 at Fri Aug 27 10:07:04 2021.

 ----------------------------------------------------------
 #P Geom=AllCheck Guess=TCheck SCRF=Check B3LYP/GTBas3 Freq
 ----------------------------------------------------------

 Structure from the checkpoint file:  "/public/home/users/caep010/.cache/gau_scr/Gau-48744.chk"
 ------
 YIKBUP
 ------
 Charge =  0 Multiplicity = 1

 SCF Done:  E(RB3LYP) =  -791.927019807     A.U. after    1 cycles

  Exact polarizability:  91.285   4.215  75.694   0.748   0.002  74.040
 Approx polarizability: 143.006  16.511 125.190   0.596   2.930 137.438

                      1                      2                      3
                      A                      A                      A
 Frequencies --     36.7230                42.3027                95.8971
 Red. masses --     11.3078                 6.9155                15.1480
 Frc consts  --      0.0090                 0.0073                 0.0821
 IR Inten    --      0.3421                 0.0834                 0.2261

                      4                      5                      6
                      A                      A                      A
 Frequencies --    144.9362               187.9504               210.9866
 Red. masses --      7.7003                12.3459                 7.6099
 Frc consts  --      0.0953                 0.2570                 0.1996
 IR Inten    --      1.2902                 1.7907                 4.4508

                      7                      8                      9
                      A                      A                      A
 Frequencies --    233.5023               275.5199               310.4840
 Red. masses --      7.5573                 2.3666                 1.7049
 Frc consts  --      0.2428                 0.1058                 0.0968
 IR Inten    --      3.1195                32.3803                46.2955

                     10                     11                     12
                      A                      A                      A
 Frequencies --    332.8409               351.7498               400.4171
 Red. masses --      2.6759                 7.6962                 4.4930
 Frc consts  --      0.1747                 0.5610                 0.4244
 IR Inten    --     13.3691                 6.6475                 0.2675

                     13                     14                     15
                      A                      A                      A
 Frequencies --    414.3206               424.9718               474.4102
 Red. masses --      4.2518                 5.4368                 1.3515
 Frc consts  --      0.4300                 0.5785                 0.1792
 IR Inten    --      6.7639                10.9087               179.0269

                     16                     17                     18
                      A                      A                      A
 Frequencies --    524.3846               590.1666               598.9276
 Red. masses --      5.2368                 7.9377                 6.4154
 Frc consts  --      0.8484                 1.6289                 1.3559
 IR Inten    --      5.8868                 4.3291                22.6282

                     19                     20                     21
                      A                      A                      A
 Frequencies --    670.4322               717.1840               764.7391
 Red. masses --      9.5701                 6.3864                 5.3687
 Frc consts  --      2.5344                 1.9354                 1.8499
 IR Inten    --      7.8190                 4.3861                30.1003

                     22                     23                     24
                      A                      A                      A
 Frequencies --    796.5138               862.5488               886.7899
 Red. masses --      6.0063                 9.3532                 4.4242
 Frc consts  --      2.2451                 4.0999                 2.0499
 IR Inten    --     45.3299                12.3243                30.8114

                     25                     26                     27
                      A                      A                      A
 Frequencies --    983.5860              1011.1957              1059.1738
 Red. masses --      3.6083                 4.4105                 8.7095
 Frc consts  --      2.0567                 2.6571                 5.7568
 IR Inten    --     56.7842                20.5499                12.2038

                     28                     29                     30
                      A                      A                      A
 Frequencies --   1082.5314              1096.1703              1127.7404
 Red. masses --      6.1772                 3.0297                 3.8407
 Frc consts  --      4.2651                 2.1449                 2.8779
 IR Inten    --     55.0087                86.4119                45.9843

                     31                     32                     33
                      A                      A                      A
 Frequencies --   1152.6330              1187.4702              1220.9580
 Red. masses --      2.3678                 4.0714                 1.2545
 Frc consts  --      1.8535                 3.3825                 1.1018
 IR Inten    --    127.5987                77.1960                28.9829

                     34                     35                     36
                      A                      A                      A
 Frequencies --   1261.0058              1300.9546              1317.9324
 Red. masses --      1.2461                 1.4060                 1.4765
 Frc consts  --      1.1675                 1.4020                 1.5110
 IR Inten    --     10.4751                35.8941                69.2417

                     37                     38                     39
                      A                      A                      A
 Frequencies --   1350.4759              1373.5317              1383.1708
 Red. masses --      1.2493                 2.6241                 2.7547
 Frc consts  --      1.3425                 2.9168                 3.1051
 IR Inten    --     20.1687                70.3223                64.6852

                     40                     41                     42
                      A                      A                      A
 Frequencies --   1430.2384              1441.5335              1470.2881
 Red. masses --      2.3992                 1.4896                 1.6371
 Frc consts  --      2.8916                 1.8238                 2.0851
 IR Inten    --     44.1934                35.3762                10.2936

                     43                     44                     45
                      A                      A                      A
 Frequencies --   1502.6815              1667.4548              1678.9910
 Red. masses --      1.1025                13.2616                13.8119
 Frc consts  --      1.4668                21.7247                22.9404
 IR Inten    --     16.4901               228.8911               229.3697

                     46                     47                     48
                      A                      A                      A
 Frequencies --   2936.9896              3027.9689              3119.5986
 Red. masses --      1.0825                 1.0693                 1.0848
 Frc consts  --      5.5013                 5.7766                 6.2203
 IR Inten    --     54.4438                18.9611                 1.8123

                     49                     50                     51
                      A                      A                      A
 Frequencies --   3160.6509              3768.0582              3819.5493
 Red. masses --      1.0951                 1.0653                 1.0661
 Frc consts  --      6.4453                 8.9113                 9.1634
 IR Inten    --      0.1881                38.2565                57.7662

 - Thermochemistry -
 -------------------
 Temperature   298.150 Kelvin.  Pressure   1.00000 Atm.
 Atom     1 has atomic number  6 and mass  12.00000

 Molecular mass:   194.01750 amu.
 Principal axes and moments of inertia in atomic units:
                           1         2         3
     Eigenvalues --  1545.644652463.943872826.39805
           X            0.99997   0.00808  -0.00015
           Y           -0.00808   0.99971   0.02270
           Z            0.00033  -0.02270   0.99974
 This molecule is an asymmetric top.
 Rotational symmetry number  1.
 Warning -- assumption of classical behavior for rotation
           may cause significant error
 Rotational temperatures (Kelvin)      0.05604     0.03515     0.03064
 Rotational constants (GHZ):           1.16763     0.73246     0.63853
 Zero-point vibrational energy     342617.9 (Joules/Mol)
                                   81.88763 (Kcal/Mol)
 Warning -- explicit consideration of  18 degrees of freedom as
           vibrations may cause significant error
 Vibrational temperatures:     52.84    60.86   137.97   208.53   270.42
          (Kelvin)            303.56   335.96   396.41   446.72   478.88
                              506.09   576.11   596.11   611.44   682.57
                              754.47   849.12   861.72   964.60  1031.87
                             1100.29  1146.00  1241.01  1275.89  1415.16
                             1454.88  1523.91  1557.52  1577.14  1622.56
                             1658.38  1708.50  1756.68  1814.30  1871.78
                             1896.21  1943.03  1976.20  1990.07  2057.79
                             2074.04  2115.41  2162.02  2399.09  2415.69
                             4225.67  4356.57  4488.40  4547.47  5421.39
                             5495.47

 Zero-point correction=                           0.130496 (Hartree/Particle)
 Thermal correction to Energy=                    0.142175
 Thermal correction to Enthalpy=                  0.143119
 Thermal correction to Gibbs Free Energy=         0.091838
 Sum of electronic and zero-point Energies=           -791.796524
 Sum of electronic and thermal Energies=              -791.784845
 Sum of electronic and thermal Enthalpies=            -791.783901
 Sum of electronic and thermal Free Energies=         -791.835182

                     E (Thermal)             CV                S
                      KCal/Mol        Cal/Mol-Kelvin    Cal/Mol-Kelvin
 Total                   89.216             42.634            107.931
 Electronic               0.000              0.000              0.000
 Translational            0.889              2.981             41.694
 Rotational               0.889              2.981             30.755
 Vibrational             87.439             36.673             35.483
 Vibration     1          0.594              1.982              5.428
 Vibration     2          0.595              1.980              5.148
 Vibration     3          0.603              1.952              3.536
 Vibration     4          0.616              1.908              2.738
 Vibration     5          0.633              1.856              2.248
 Vibration     6          0.643              1.824              2.035
 Vibration     7          0.654              1.790              1.852
 Vibration     8          0.677              1.719              1.561
 Vibration     9          0.699              1.654              1.360
 Vibration    10          0.715              1.610              1.246
 Vibration    11          0.728              1.572              1.158
 Vibration    12          0.766              1.469              0.961
 Vibration    13          0.778              1.439              0.911
 Vibration    14          0.787              1.416              0.875
 Vibration    15          0.831              1.307              0.725
 Vibration    16          0.879              1.196              0.600
 Vibration    17          0.948              1.053              0.467
 Vibration    18          0.957              1.034              0.452

 Normal termination of Gaussian 09 at Fri Aug 27 10:10:14 2021.

 -----------------------------------------------------------------
 #P Geom=AllCheck Guess=TCheck SCRF=Check CCSD(T,E4T,FrzG4)/GTBas1
 -----------------------------------------------------------------

 Structure from the checkpoint file:  "/public/home/users/caep010/.cache/gau_scr/Gau-48744.chk"
 ------
 YIKBUP
 ------
 Charge =  0 Multiplicity = 1

 SCF Done:  E(RHF) =  -787.593147508     A.U. after   14 cycles
 E2 =    -0.2144220767D+01 EUMP2 =    -0.78973736827546D+03
 CCSD(T)
 CCSD(T)= -0.78983442925D+03
 CSD=-789.7514152\CCSD(T)=-789.8344292\RMSD=8.125e-09\PG=C01 [X(C4H6N2O
 Normal termination of Gaussian 09 at Fri Aug 27 11:51:36 2021.

 ---------------------------------------------------------
 #P Geom=AllCheck Guess=TCheck SCRF=Check MP4=FrzG4/GTBas2
 ---------------------------------------------------------

 Structure from the checkpoint file:  "/public/home/users/caep010/.cache/gau_scr/Gau-48744.chk"
 ------
 YIKBUP
 ------
 Charge =  0 Multiplicity = 1

 SCF Done:  E(RHF) =  -787.618369125     A.U. after   15 cycles
 E2 =    -0.2179340655D+01 EUMP2 =    -0.78979770978022D+03
 Normal termination of Gaussian 09 at Fri Aug 27 12:32:55 2021.

 ---------------------------------------------------------
 #P Geom=AllCheck Guess=TCheck SCRF=Check MP4=FrzG4/GTBas3
 ---------------------------------------------------------

 Structure from the checkpoint file:  "/public/home/users/caep010/.cache/gau_scr/Gau-48744.chk"
 ------
 YIKBUP
 ------
 Charge =  0 Multiplicity = 1

 SCF Done:  E(RHF) =  -787.684255566     A.U. after   13 cycles
 E2 =    -0.2593579943D+01 EUMP2 =    -0.79027783550843D+03
 Normal termination of Gaussian 09 at Fri Aug 27 16:36:34 2021.

 -----------------------------------------------------------
 #P Geom=AllCheck Guess=TCheck SCRF=Check MP2=Full/GTLargeXP
 -----------------------------------------------------------

 Structure from the checkpoint file:  "/public/home/users/caep010/.cache/gau_scr/Gau-48744.chk"
 ------
 YIKBUP
 ------
 Charge =  0 Multiplicity = 1

 SCF Done:  E(RHF) =  -787.900185286     A.U. after   15 cycles
 E2 =    -0.3355228548D+01 EUMP2 =    -0.79125541383374D+03
 Normal termination of Gaussian 09 at Fri Aug 27 16:49:50 2021.
 SCF Done:  E(RHF) =  -787.963030939     A.U. after   10 cycles
 Normal termination of Gaussian 09 at Fri Aug 27 16:57:01 2021.

                         Standard orientation:
 ---------------------------------------------------------------------
 Center     Atomic      Atomic             Coordinates (Angstroms)
 Number     Number       Type             X           Y           Z
 ---------------------------------------------------------------------
      1          6           0       -0.374294   -0.095562   -0.176910
      2          7           0       -1.245582    1.123702   -0.394572
      3          8           0       -0.641347    2.101567   -0.824015
      4          6           0        0.275178   -0.564973   -1.496810
      5          6           0        0.844149    0.238824    0.752784
      6          8           0        0.804162    1.449798    1.430738
      7          1           0        0.763245    2.165725    0.783001
      8          1           0        0.252211    0.268346   -2.211123
      9          7           0       -1.304863   -1.155323    0.432882
     10          8           0       -1.397980   -1.160508    1.644530
     11          8           0       -1.890202   -1.885739   -0.344575
     12          6           0        2.045640    0.037130   -0.198116
     13          1           0        2.287099    0.983865   -0.715892
     14          8           0        3.116673   -0.454560    0.513738
     15          1           0        3.897186   -0.454313   -0.050630
     16          8           0       -2.427728    1.065260   -0.142646
     17          8           0        1.593794   -0.923400   -1.147104
     18          1           0        0.888126   -0.545311    1.510634
     19          1           0       -0.237766   -1.428827   -1.915154
 ---------------------------------------------------------------------

 SCF Done:  E(RHF) =  -787.976358514     A.U. after    8 cycles

 The electronic state is 1-A.
 Alpha  occ. eigenvalues --  -20.65788 -20.64230 -20.63581 -20.63521 -20.61182
 Alpha  occ. eigenvalues --  -20.60584 -20.60316 -15.89888 -15.88283 -11.40972
 Alpha  occ. eigenvalues --  -11.38240 -11.34820 -11.34452  -1.66131  -1.63804
 Alpha  occ. eigenvalues --   -1.47395  -1.45388  -1.43908  -1.41707  -1.39884
 Alpha  occ. eigenvalues --   -1.19649  -1.04195  -0.99676  -0.98904  -0.89138
 Alpha  occ. eigenvalues --   -0.85906  -0.82574  -0.80589  -0.78098  -0.77426
 Alpha  occ. eigenvalues --   -0.76799  -0.75664  -0.73664  -0.71861  -0.67927
 Alpha  occ. eigenvalues --   -0.66812  -0.66339  -0.64652  -0.59842  -0.58575
 Alpha  occ. eigenvalues --   -0.55525  -0.54629  -0.53856  -0.53316  -0.52779
 Alpha  occ. eigenvalues --   -0.51276  -0.50153  -0.49872  -0.48106  -0.46645
 Alpha virt. eigenvalues --    0.02098   0.03366   0.03921   0.04233   0.04838
 Alpha virt. eigenvalues --    0.04987   0.06480   0.06738   0.06805   0.07089
 Alpha virt. eigenvalues --    0.07633   0.08905   0.09179   0.09490   0.10227

 Mulliken charges:
               1
     1  C    0.374432
     2  N    0.534770
     3  O   -0.456317
     4  C   -0.270801
     5  C    0.098077
     6  O   -0.598682
     7  H    0.397131
     8  H    0.216271
     9  N    0.526903
    10  O   -0.390750
    11  O   -0.407846
    12  C    0.232293
    13  H    0.148677
    14  O   -0.568875
    15  H    0.388375
    16  O   -0.354905
    17  O   -0.371927
    18  H    0.252501
    19  H    0.250674
 Sum of Mulliken charges =  -0.00000

 Dipole moment (field-independent basis, Debye):
    X=              3.9684    Y=              0.9768    Z=             -3.2583  Tot=              5.2267
 Quadrupole moment (field-independent basis, Debye-Ang):
   XX=            -74.8054   YY=            -80.1706   ZZ=            -77.1965
   XY=              1.5344   XZ=             -2.3480   YZ=              0.1821

 Normal termination of Gaussian 09 at Fri Aug 27 17:45:18 2021.
