 Gaussian 09, Revision E.01,
 Gaussian 09:  ES64L-G09RevE.01 30-Nov-2015

 ----------------
 #P G4 OPT=calcfc
 ----------------

 ------
 YODHUV
 ------
 Symbolic Z-matrix:
 Charge =  0 Multiplicity = 1

 SCF Done:  E(RB3LYP) =  -621.113594149     A.U. after   15 cycles
 SCF Done:  E(RB3LYP) =  -621.215006860     A.U. after   13 cycles
 SCF Done:  E(RB3LYP) =  -621.278810118     A.U. after   14 cycles
 SCF Done:  E(RB3LYP) =  -621.280698462     A.U. after   12 cycles
 SCF Done:  E(RB3LYP) =  -621.280589823     A.U. after   12 cycles
 SCF Done:  E(RB3LYP) =  -621.280702905     A.U. after    9 cycles
 SCF Done:  E(RB3LYP) =  -621.280990119     A.U. after   12 cycles
 SCF Done:  E(RB3LYP) =  -621.281049657     A.U. after   11 cycles
 SCF Done:  E(RB3LYP) =  -621.281082174     A.U. after   10 cycles
 SCF Done:  E(RB3LYP) =  -621.281109399     A.U. after   11 cycles
 SCF Done:  E(RB3LYP) =  -621.281148260     A.U. after   10 cycles
 SCF Done:  E(RB3LYP) =  -621.281148744     A.U. after    9 cycles
 SCF Done:  E(RB3LYP) =  -621.281148733     A.U. after    7 cycles
 Optimization completed.
    -- Stationary point found.
 Normal termination of Gaussian 09 at Wed Aug 25 07:47:39 2021.

 ----------------------------------------------------------
 #P Geom=AllCheck Guess=TCheck SCRF=Check B3LYP/GTBas3 Freq
 ----------------------------------------------------------

 Structure from the checkpoint file:  "/public/home/users/caep010/.cache/gau_scr/Gau-223025.chk"
 ------
 YODHUV
 ------
 Charge =  0 Multiplicity = 1

 SCF Done:  E(RB3LYP) =  -621.281148733     A.U. after    1 cycles

  Exact polarizability: 129.454  -1.613 103.517   4.239   2.021  69.856
 Approx polarizability: 190.568   1.950 166.224  11.991   8.062 106.311

                      1                      2                      3
                      A                      A                      A
 Frequencies --     42.5763                56.0849                77.5742
 Red. masses --      1.8544                 8.9297                 2.3341
 Frc consts  --      0.0020                 0.0165                 0.0083
 IR Inten    --      0.3583                 0.1832                 0.2017

                      4                      5                      6
                      A                      A                      A
 Frequencies --     96.5666               159.5703               186.4360
 Red. masses --      1.8310                 5.8238                 1.0362
 Frc consts  --      0.0101                 0.0874                 0.0212
 IR Inten    --      0.9328                 1.0723                 0.0436

                      7                      8                      9
                      A                      A                      A
 Frequencies --    188.6851               210.3872               239.4404
 Red. masses --      3.7991                 5.6326                 4.1272
 Frc consts  --      0.0797                 0.1469                 0.1394
 IR Inten    --      0.4240                 5.3963                11.4268

                     10                     11                     12
                      A                      A                      A
 Frequencies --    318.6412               396.6356               414.2999
 Red. masses --      3.4350                 3.0602                 3.8698
 Frc consts  --      0.2055                 0.2837                 0.3913
 IR Inten    --      2.3612                 0.5892                 2.9490

                     13                     14                     15
                      A                      A                      A
 Frequencies --    439.2643               458.8434               553.2832
 Red. masses --      2.3069                 3.3195                 4.3063
 Frc consts  --      0.2623                 0.4118                 0.7767
 IR Inten    --      2.3158                 0.1269                 2.9014

                     16                     17                     18
                      A                      A                      A
 Frequencies --    616.9623               677.2180               731.6798
 Red. masses --      4.8178                 1.2408                 5.8382
 Frc consts  --      1.0805                 0.3353                 1.8415
 IR Inten    --     16.2675                30.2594                36.1976

                     19                     20                     21
                      A                      A                      A
 Frequencies --    741.8263               768.4556               799.9543
 Red. masses --      5.3651                10.8651                13.8899
 Frc consts  --      1.7395                 3.7803                 5.2370
 IR Inten    --     11.1343                 4.9876                15.5149

                     22                     23                     24
                      A                      A                      A
 Frequencies --    849.1822               879.6604               965.9581
 Red. masses --      5.3120                 4.5133                 3.1915
 Frc consts  --      2.2569                 2.0577                 1.7545
 IR Inten    --      9.5286                 9.0349                64.2821

                     25                     26                     27
                      A                      A                      A
 Frequencies --   1014.9571              1017.1542              1047.5239
 Red. masses --      3.0668                 1.9940                 1.9133
 Frc consts  --      1.8614                 1.2155                 1.2370
 IR Inten    --     76.7469                25.6975                23.3714

                     28                     29                     30
                      A                      A                      A
 Frequencies --   1065.0028              1088.7709              1148.0514
 Red. masses --      2.1145                 2.1312                 1.5381
 Frc consts  --      1.4131                 1.4885                 1.1945
 IR Inten    --      3.2930               106.4489                27.0753

                     31                     32                     33
                      A                      A                      A
 Frequencies --   1157.3709              1182.5555              1232.7648
 Red. masses --      1.3154                 1.8339                 2.7297
 Frc consts  --      1.0381                 1.5110                 2.4442
 IR Inten    --      4.2921                23.6809               147.9016

                     34                     35                     36
                      A                      A                      A
 Frequencies --   1243.4218              1253.5948              1301.1894
 Red. masses --      2.8054                 2.1623                 2.8965
 Frc consts  --      2.5555                 2.0021                 2.8894
 IR Inten    --    130.9407                42.0812                97.4362

                     37                     38                     39
                      A                      A                      A
 Frequencies --   1316.8528              1343.0504              1382.2226
 Red. masses --      1.9339                 1.5189                 1.5968
 Frc consts  --      1.9759                 1.6142                 1.7974
 IR Inten    --     39.6466                24.1840                13.1154

                     40                     41                     42
                      A                      A                      A
 Frequencies --   1388.3454              1420.9181              1438.6173
 Red. masses --      2.1501                 1.3613                 1.2015
 Frc consts  --      2.4417                 1.6194                 1.4651
 IR Inten    --    175.5114               100.2490                42.3448

                     43                     44                     45
                      A                      A                      A
 Frequencies --   1463.9018              1487.5666              1488.8378
 Red. masses --      1.1946                 1.0535                 1.1753
 Frc consts  --      1.5083                 1.3736                 1.5349
 IR Inten    --     45.0408                 8.3163                72.3886

                     46                     47                     48
                      A                      A                      A
 Frequencies --   1498.3694              1503.9958              1509.5693
 Red. masses --      1.0965                 1.0726                 1.0519
 Frc consts  --      1.4504                 1.4295                 1.4124
 IR Inten    --      2.8466                10.3463                 8.8412

                     49                     50                     51
                      A                      A                      A
 Frequencies --   1516.7317              1565.8216              1614.4757
 Red. masses --      1.1310                 3.0203                 4.9388
 Frc consts  --      1.5330                 4.3629                 7.5846
 IR Inten    --     25.7268               504.6244               573.8836

                     52                     53                     54
                      A                      A                      A
 Frequencies --   1638.1339              2993.1130              3001.4220
 Red. masses --      3.6005                 1.0682                 1.0474
 Frc consts  --      5.6926                 5.6385                 5.5591
 IR Inten    --    124.5319                41.5529                40.8310

                     55                     56                     57
                      A                      A                      A
 Frequencies --   3012.7619              3015.0788              3074.2585
 Red. masses --      1.0643                 1.0508                 1.0970
 Frc consts  --      5.6915                 5.6282                 6.1087
 IR Inten    --     59.8191                69.3441                26.4194

                     58                     59                     60
                      A                      A                      A
 Frequencies --   3081.2562              3083.7780              3095.9892
 Red. masses --      1.0947                 1.0873                 1.0965
 Frc consts  --      6.1237                 6.0921                 6.1924
 IR Inten    --     15.1057                35.1542                17.2876

                     61                     62                     63
                      A                      A                      A
 Frequencies --   3119.6333              3185.5631              3417.8928
 Red. masses --      1.1033                 1.0955                 1.0790
 Frc consts  --      6.3263                 6.5496                 7.4266
 IR Inten    --     19.2558                 0.6669               274.5972

 - Thermochemistry -
 -------------------
 Temperature   298.150 Kelvin.  Pressure   1.00000 Atm.
 Atom     1 has atomic number  8 and mass  15.99491

 Molecular mass:   173.09127 amu.
 Principal axes and moments of inertia in atomic units:
                           1         2         3
     Eigenvalues --  1059.709752757.135723446.21718
           X            0.99994   0.00413  -0.01000
           Y           -0.00420   0.99997  -0.00690
           Z            0.00997   0.00694   0.99993
 This molecule is an asymmetric top.
 Rotational symmetry number  1.
 Warning -- assumption of classical behavior for rotation
           may cause significant error
 Rotational temperatures (Kelvin)      0.08173     0.03141     0.02513
 Rotational constants (GHZ):           1.70305     0.65457     0.52369
 Zero-point vibrational energy     492141.9 (Joules/Mol)
                                  117.62474 (Kcal/Mol)
 Warning -- explicit consideration of  16 degrees of freedom as
           vibrations may cause significant error
 Vibrational temperatures:     61.26    80.69   111.61   138.94   229.59
          (Kelvin)            268.24   271.48   302.70   344.50   458.45
                              570.67   596.08   632.00   660.17   796.05
                              887.67   974.36  1052.72  1067.32  1105.63
                             1150.95  1221.78  1265.63  1389.80  1460.30
                             1463.46  1507.15  1532.30  1566.50  1651.79
                             1665.20  1701.43  1773.67  1789.00  1803.64
                             1872.12  1894.66  1932.35  1988.71  1997.52
                             2044.38  2069.85  2106.23  2140.27  2142.10
                             2155.82  2163.91  2171.93  2182.24  2252.87
                             2322.87  2356.91  4306.42  4318.37  4334.69
                             4338.02  4423.17  4433.23  4436.86  4454.43
                             4488.45  4583.31  4917.58

 Zero-point correction=                           0.187447 (Hartree/Particle)
 Thermal correction to Energy=                    0.199191
 Thermal correction to Enthalpy=                  0.200135
 Thermal correction to Gibbs Free Energy=         0.148566
 Sum of electronic and zero-point Energies=           -621.093702
 Sum of electronic and thermal Energies=              -621.081958
 Sum of electronic and thermal Enthalpies=            -621.081013
 Sum of electronic and thermal Free Energies=         -621.132582

                     E (Thermal)             CV                S
                      KCal/Mol        Cal/Mol-Kelvin    Cal/Mol-Kelvin
 Total                  124.994             42.115            108.536
 Electronic               0.000              0.000              0.000
 Translational            0.889              2.981             41.353
 Rotational               0.889              2.981             30.688
 Vibrational            123.217             36.154             36.494
 Vibration     1          0.595              1.980              5.135
 Vibration     2          0.596              1.975              4.590
 Vibration     3          0.599              1.964              3.951
 Vibration     4          0.603              1.952              3.522
 Vibration     5          0.621              1.892              2.555
 Vibration     6          0.632              1.858              2.263
 Vibration     7          0.633              1.855              2.241
 Vibration     8          0.643              1.825              2.040
 Vibration     9          0.657              1.780              1.807
 Vibration    10          0.705              1.638              1.317
 Vibration    11          0.763              1.477              0.975
 Vibration    12          0.778              1.439              0.912
 Vibration    13          0.799              1.385              0.829
 Vibration    14          0.817              1.341              0.769
 Vibration    15          0.909              1.133              0.537
 Vibration    16          0.977              0.996              0.421

 Optimization completed.
    -- Stationary point found.
 Normal termination of Gaussian 09 at Wed Aug 25 07:50:39 2021.

 -----------------------------------------------------------------
 #P Geom=AllCheck Guess=TCheck SCRF=Check CCSD(T,E4T,FrzG4)/GTBas1
 -----------------------------------------------------------------

 Structure from the checkpoint file:  "/public/home/users/caep010/.cache/gau_scr/Gau-223025.chk"
 ------
 YODHUV
 ------
 Charge =  0 Multiplicity = 1

 SCF Done:  E(RHF) =  -617.551532232     A.U. after   14 cycles
 E2 =    -0.1832348792D+01 EUMP2 =    -0.61938388102380D+03
 CCSD(T)
 CCSD(T)= -0.61951006875D+03
 19.5216343\MP4SDQ=-619.441001\CCSD=-619.4380376\CCSD(T)=-619.5100688\R
 Normal termination of Gaussian 09 at Wed Aug 25 09:01:04 2021.

 ---------------------------------------------------------
 #P Geom=AllCheck Guess=TCheck SCRF=Check MP4=FrzG4/GTBas2
 ---------------------------------------------------------

 Structure from the checkpoint file:  "/public/home/users/caep010/.cache/gau_scr/Gau-223025.chk"
 ------
 YODHUV
 ------
 Charge =  0 Multiplicity = 1

 SCF Done:  E(RHF) =  -617.567499520     A.U. after   13 cycles
 E2 =    -0.1859235145D+01 EUMP2 =    -0.61942673466552D+03
 Normal termination of Gaussian 09 at Wed Aug 25 09:29:59 2021.

 ---------------------------------------------------------
 #P Geom=AllCheck Guess=TCheck SCRF=Check MP4=FrzG4/GTBas3
 ---------------------------------------------------------

 Structure from the checkpoint file:  "/public/home/users/caep010/.cache/gau_scr/Gau-223025.chk"
 ------
 YODHUV
 ------
 Charge =  0 Multiplicity = 1

 SCF Done:  E(RHF) =  -617.619819683     A.U. after   12 cycles
 E2 =    -0.2214136614D+01 EUMP2 =    -0.61983395629784D+03
 Normal termination of Gaussian 09 at Wed Aug 25 13:01:13 2021.

 -----------------------------------------------------------
 #P Geom=AllCheck Guess=TCheck SCRF=Check MP2=Full/GTLargeXP
 -----------------------------------------------------------

 Structure from the checkpoint file:  "/public/home/users/caep010/.cache/gau_scr/Gau-223025.chk"
 ------
 YODHUV
 ------
 Charge =  0 Multiplicity = 1

 SCF Done:  E(RHF) =  -617.772143101     A.U. after   13 cycles
 E2 =    -0.2884196720D+01 EUMP2 =    -0.62065633982160D+03
 Normal termination of Gaussian 09 at Wed Aug 25 13:15:10 2021.
 SCF Done:  E(RHF) =  -617.820369330     A.U. after   10 cycles
 Normal termination of Gaussian 09 at Wed Aug 25 13:22:15 2021.

                         Standard orientation:
 ---------------------------------------------------------------------
 Center     Atomic      Atomic             Coordinates (Angstroms)
 Number     Number       Type             X           Y           Z
 ---------------------------------------------------------------------
      1          8           0        2.419033   -1.453031   -0.052133
      2          7           0        2.553395   -0.218440    0.124475
      3          7           0        1.501808    0.653728    0.087498
      4          6           0        0.268513    0.196441   -0.158659
      5          7           0       -0.722275    1.132325   -0.134612
      6          7           0       -0.080804   -1.080313   -0.395469
      7          6           0       -1.447401   -1.492995   -0.711300
      8          1           0       -1.598583   -1.501377   -1.799133
      9          1           0       -1.593767   -2.510679   -0.340883
     10          1           0        0.717794   -1.713997   -0.367353
     11          7           0       -2.417712   -0.604462   -0.113946
     12          8           0        3.640149    0.289641    0.343046
     13          6           0       -0.441659    2.555561   -0.022378
     14          1           0       -1.166756    3.013770    0.658673
     15          1           0       -0.519137    3.055310   -0.997311
     16          6           0       -2.578784   -0.787455    1.330224
     17          1           0       -3.366497   -0.117983    1.686682
     18          1           0       -2.897706   -1.815248    1.523471
     19          1           0       -1.666476   -0.591545    1.912088
     20          1           0        0.564482    2.694418    0.364915
     21          6           0       -2.096014    0.747554   -0.498308
     22          1           0       -2.241733    0.854706   -1.583351
     23          1           0       -2.773891    1.445241    0.001802
 ---------------------------------------------------------------------

 SCF Done:  E(RHF) =  -617.830145782     A.U. after    7 cycles

 The electronic state is 1-A.
 Alpha  occ. eigenvalues --  -20.57054 -20.56554 -15.85235 -15.61065 -15.59948
 Alpha  occ. eigenvalues --  -15.58718 -15.57867 -11.39736 -11.32412 -11.32359
 Alpha  occ. eigenvalues --  -11.27321 -11.27121  -1.58552  -1.37493  -1.35920
 Alpha  occ. eigenvalues --   -1.27226  -1.24168  -1.20291  -1.00431  -0.99957
 Alpha  occ. eigenvalues --   -0.96661  -0.91815  -0.85558  -0.78924  -0.75356
 Alpha  occ. eigenvalues --   -0.73633  -0.71947  -0.70600  -0.69661  -0.67716
 Alpha  occ. eigenvalues --   -0.66308  -0.64864  -0.63224  -0.60042  -0.57665
 Alpha  occ. eigenvalues --   -0.57217  -0.55715  -0.54234  -0.53037  -0.51530
 Alpha  occ. eigenvalues --   -0.47597  -0.44362  -0.44226  -0.41036  -0.40152
 Alpha  occ. eigenvalues --   -0.38404
 Alpha virt. eigenvalues --    0.02289   0.02931   0.03204   0.03973   0.04922
 Alpha virt. eigenvalues --    0.05367   0.05647   0.06136   0.06740   0.07843
 Alpha virt. eigenvalues --    0.08296   0.08591   0.09069   0.09196   0.09630

 Mulliken charges:
               1
     1  O   -0.503620
     2  N    0.550762
     3  N   -0.428208
     4  C    0.501236
     5  N    0.007856
     6  N   -0.434468
     7  C   -0.277466
     8  H    0.188246
     9  H    0.190913
    10  H    0.424955
    11  N    0.050607
    12  O   -0.412238
    13  C   -0.527264
    14  H    0.171438
    15  H    0.169066
    16  C   -0.566121
    17  H    0.175803
    18  H    0.177395
    19  H    0.184023
    20  H    0.256596
    21  C   -0.282221
    22  H    0.187734
    23  H    0.194977
 Sum of Mulliken charges =  -0.00000

 Dipole moment (field-independent basis, Debye):
    X=             -7.9232    Y=              0.5338    Z=             -0.7404  Tot=              7.9756
 Quadrupole moment (field-independent basis, Debye-Ang):
   XX=            -91.4980   YY=            -66.1854   ZZ=            -68.8817
   XY=             -0.2386   XZ=             -2.9976   YZ=             -0.3216

 Normal termination of Gaussian 09 at Wed Aug 25 14:03:40 2021.
