 Gaussian 09, Revision E.01,
 Gaussian 09:  ES64L-G09RevE.01 30-Nov-2015

 ----------------
 #P G4 OPT=calcfc
 ----------------

 ------
 YEYMAR
 ------
 Symbolic Z-matrix:
 Charge =  0 Multiplicity = 1

 SCF Done:  E(RB3LYP) =  -660.621452548     A.U. after   15 cycles
 SCF Done:  E(RB3LYP) =  -660.733181008     A.U. after   13 cycles
 SCF Done:  E(RB3LYP) =  -660.785018196     A.U. after   15 cycles
 SCF Done:  E(RB3LYP) =  -660.787970844     A.U. after   14 cycles
 SCF Done:  E(RB3LYP) =  -660.789276041     A.U. after   13 cycles
 SCF Done:  E(RB3LYP) =  -660.788208868     A.U. after   13 cycles
 SCF Done:  E(RB3LYP) =  -660.789629311     A.U. after   10 cycles
 SCF Done:  E(RB3LYP) =  -660.789797832     A.U. after   12 cycles
 SCF Done:  E(RB3LYP) =  -660.789824688     A.U. after   10 cycles
 SCF Done:  E(RB3LYP) =  -660.789828591     A.U. after    9 cycles
 SCF Done:  E(RB3LYP) =  -660.789829353     A.U. after    8 cycles
 SCF Done:  E(RB3LYP) =  -660.789829531     A.U. after    8 cycles
 Optimization completed.
    -- Stationary point found.
 Normal termination of Gaussian 09 at Wed Aug 25 21:01:48 2021.

 ----------------------------------------------------------
 #P Geom=AllCheck Guess=TCheck SCRF=Check B3LYP/GTBas3 Freq
 ----------------------------------------------------------

 Structure from the checkpoint file:  "/public/home/users/caep010/.cache/gau_scr/Gau-93452.chk"
 ------
 YEYMAR
 ------
 Charge =  0 Multiplicity = 1

 SCF Done:  E(RB3LYP) =  -660.789829531     A.U. after    1 cycles

  Exact polarizability: 186.773  -7.025 113.227  -1.339  -0.885  48.413
 Approx polarizability: 279.455 -19.791 228.710  -3.927  -4.687  80.754

                      1                      2                      3
                      A                      A                      A
 Frequencies --     51.4209                68.0769                80.2292
 Red. masses --      7.8567                 7.3641                 4.8754
 Frc consts  --      0.0122                 0.0201                 0.0185
 IR Inten    --      0.6255                 0.7972                 0.7666

                      4                      5                      6
                      A                      A                      A
 Frequencies --    131.7473               197.7928               251.3223
 Red. masses --      7.3313                 8.3270                 7.5958
 Frc consts  --      0.0750                 0.1919                 0.2827
 IR Inten    --      0.7412                 4.1744                 2.7768

                      7                      8                      9
                      A                      A                      A
 Frequencies --    280.3119               307.7966               345.5280
 Red. masses --      7.7306                 2.1931                 4.4996
 Frc consts  --      0.3579                 0.1224                 0.3165
 IR Inten    --      0.2192                45.7717                 4.6723

                     10                     11                     12
                      A                      A                      A
 Frequencies --    365.8890               417.7075               425.5621
 Red. masses --      1.6548                 1.7337                 2.2119
 Frc consts  --      0.1305                 0.1782                 0.2360
 IR Inten    --     76.3421                31.1901                13.5250

                     13                     14                     15
                      A                      A                      A
 Frequencies --    457.8593               504.4426               511.5298
 Red. masses --      2.7287                 7.2182                 3.1363
 Frc consts  --      0.3370                 1.0822                 0.4835
 IR Inten    --      1.2649                20.3039                16.1895

                     16                     17                     18
                      A                      A                      A
 Frequencies --    540.6419               594.0740               639.3531
 Red. masses --      5.7607                 1.4597                 7.0258
 Frc consts  --      0.9921                 0.3035                 1.6921
 IR Inten    --      0.6311               124.4863                 0.2221

                     19                     20                     21
                      A                      A                      A
 Frequencies --    701.5169               709.5605               729.3155
 Red. masses --      4.1500                 5.8468                 3.5453
 Frc consts  --      1.2033                 1.7344                 1.1111
 IR Inten    --     35.5627                 5.0136                59.4152

                     22                     23                     24
                      A                      A                      A
 Frequencies --    793.0194               820.6046               867.0967
 Red. masses --      5.0711                 4.1495                 1.2642
 Frc consts  --      1.8790                 1.6463                 0.5600
 IR Inten    --      8.0984                57.9343                 0.9152

                     25                     26                     27
                      A                      A                      A
 Frequencies --    874.0557               903.3992               980.6084
 Red. masses --      8.0224                 1.8370                 3.1750
 Frc consts  --      3.6110                 0.8833                 1.7988
 IR Inten    --     26.9537                31.4102                97.0380

                     28                     29                     30
                      A                      A                      A
 Frequencies --    983.0822              1008.5815              1026.8707
 Red. masses --      1.8204                 1.3539                 2.8653
 Frc consts  --      1.0366                 0.8115                 1.7801
 IR Inten    --     45.1559                 0.5490                 1.0648

                     31                     32                     33
                      A                      A                      A
 Frequencies --   1106.3461              1124.6861              1126.4750
 Red. masses --      2.3392                 2.8834                 1.3260
 Frc consts  --      1.6870                 2.1489                 0.9913
 IR Inten    --     49.5873                57.7194                 8.9697

                     34                     35                     36
                      A                      A                      A
 Frequencies --   1160.5219              1200.0116              1315.1840
 Red. masses --      1.8414                 1.3069                 1.3472
 Frc consts  --      1.4612                 1.1089                 1.3729
 IR Inten    --     11.0690                 0.4012                 1.0255

                     37                     38                     39
                      A                      A                      A
 Frequencies --   1346.8451              1363.3338              1391.2652
 Red. masses --      1.9527                 4.1629                13.9440
 Frc consts  --      2.0870                 4.5588                15.9023
 IR Inten    --    114.6765                33.3326               383.3777

                     40                     41                     42
                      A                      A                      A
 Frequencies --   1430.8227              1440.0607              1527.7872
 Red. masses --      3.1041                 2.3375                 2.7132
 Frc consts  --      3.7442                 2.8560                 3.7313
 IR Inten    --      4.1461                13.2633                12.5405

                     43                     44                     45
                      A                      A                      A
 Frequencies --   1600.2376              1622.7125              1637.3053
 Red. masses --      9.3422                 1.2397                 5.4052
 Frc consts  --     14.0952                 1.9233                 8.5374
 IR Inten    --     73.1941                50.8008                47.4719

                     46                     47                     48
                      A                      A                      A
 Frequencies --   1653.9115              1702.8907              3201.0306
 Red. masses --     10.0645                 5.7178                 1.0890
 Frc consts  --     16.2206                 9.7691                 6.5743
 IR Inten    --    163.3308                80.1312                 3.2493

                     49                     50                     51
                      A                      A                      A
 Frequencies --   3220.5279              3237.9175              3238.3455
 Red. masses --      1.0886                 1.0923                 1.0936
 Frc consts  --      6.6524                 6.7472                 6.7573
 IR Inten    --      0.5696                 0.6090                 1.5787

                     52                     53                     54
                      A                      A                      A
 Frequencies --   3573.1074              3679.7886              3835.6254
 Red. masses --      1.0460                 1.0993                 1.0679
 Frc consts  --      7.8680                 8.7703                 9.2563
 IR Inten    --     31.6549                28.5546               136.4917

 - Thermochemistry -
 -------------------
 Temperature   298.150 Kelvin.  Pressure   1.00000 Atm.
 Atom     1 has atomic number  8 and mass  15.99491

 Molecular mass:   181.04874 amu.
 Principal axes and moments of inertia in atomic units:
                           1         2         3
     Eigenvalues --   662.407615069.390525688.80892
           X            1.00000   0.00193   0.00180
           Y           -0.00194   0.99999   0.00488
           Z           -0.00179  -0.00489   0.99999
 This molecule is an asymmetric top.
 Rotational symmetry number  1.
 Warning -- assumption of classical behavior for rotation
           may cause significant error
 Rotational temperatures (Kelvin)      0.13076     0.01709     0.01523
 Rotational constants (GHZ):           2.72452     0.35601     0.31724
 Zero-point vibrational energy     384633.7 (Joules/Mol)
                                   91.92966 (Kcal/Mol)
 Warning -- explicit consideration of  17 degrees of freedom as
           vibrations may cause significant error
 Vibrational temperatures:     73.98    97.95   115.43   189.55   284.58
          (Kelvin)            361.60   403.31   442.85   497.14   526.43
                              600.99   612.29   658.76   725.78   735.98
                              777.86   854.74   919.89  1009.33  1020.90
                             1049.32  1140.98  1180.67  1247.56  1257.57
                             1299.79  1410.88  1414.43  1451.12  1477.44
                             1591.78  1618.17  1620.74  1669.73  1726.55
                             1892.25  1937.81  1961.53  2001.72  2058.63
                             2071.92  2198.14  2302.38  2334.72  2355.71
                             2379.61  2450.08  4605.56  4633.62  4658.64
                             4659.25  5140.90  5294.39  5518.60

 Zero-point correction=                           0.146499 (Hartree/Particle)
 Thermal correction to Energy=                    0.157765
 Thermal correction to Enthalpy=                  0.158709
 Thermal correction to Gibbs Free Energy=         0.108624
 Sum of electronic and zero-point Energies=           -660.643330
 Sum of electronic and thermal Energies=              -660.632064
 Sum of electronic and thermal Enthalpies=            -660.631120
 Sum of electronic and thermal Free Energies=         -660.681206

                     E (Thermal)             CV                S
                      KCal/Mol        Cal/Mol-Kelvin    Cal/Mol-Kelvin
 Total                   98.999             42.689            105.414
 Electronic               0.000              0.000              0.000
 Translational            0.889              2.981             41.487
 Rotational               0.889              2.981             31.325
 Vibrational             97.222             36.728             32.601
 Vibration     1          0.596              1.977              4.762
 Vibration     2          0.598              1.969              4.208
 Vibration     3          0.600              1.963              3.885
 Vibration     4          0.612              1.922              2.920
 Vibration     5          0.637              1.843              2.154
 Vibration     6          0.663              1.761              1.721
 Vibration     7          0.680              1.710              1.532
 Vibration     8          0.698              1.659              1.374
 Vibration     9          0.724              1.584              1.187
 Vibration    10          0.739              1.542              1.097
 Vibration    11          0.781              1.432              0.900
 Vibration    12          0.787              1.415              0.873
 Vibration    13          0.816              1.344              0.772
 Vibration    14          0.860              1.240              0.647
 Vibration    15          0.867              1.224              0.630
 Vibration    16          0.896              1.160              0.564
 Vibration    17          0.952              1.044              0.460

 Optimization completed.
    -- Stationary point found.
 Normal termination of Gaussian 09 at Wed Aug 25 21:04:35 2021.

 -----------------------------------------------------------------
 #P Geom=AllCheck Guess=TCheck SCRF=Check CCSD(T,E4T,FrzG4)/GTBas1
 -----------------------------------------------------------------

 Structure from the checkpoint file:  "/public/home/users/caep010/.cache/gau_scr/Gau-93452.chk"
 ------
 YEYMAR
 ------
 Charge =  0 Multiplicity = 1

 SCF Done:  E(RHF) =  -656.901601109     A.U. after   15 cycles
 E2 =    -0.1934074496D+01 EUMP2 =    -0.65883567560524D+03
 CCSD(T)
 CCSD(T)= -0.65895281308D+03
 8.8678832\CCSD(T)=-658.9528131\RMSD=2.889e-09\PG=C01 [X(C7H7N3O3)]\\@
 Normal termination of Gaussian 09 at Wed Aug 25 22:29:10 2021.

 ---------------------------------------------------------
 #P Geom=AllCheck Guess=TCheck SCRF=Check MP4=FrzG4/GTBas2
 ---------------------------------------------------------

 Structure from the checkpoint file:  "/public/home/users/caep010/.cache/gau_scr/Gau-93452.chk"
 ------
 YEYMAR
 ------
 Charge =  0 Multiplicity = 1

 SCF Done:  E(RHF) =  -656.922699816     A.U. after   16 cycles
 E2 =    -0.1961918611D+01 EUMP2 =    -0.65888461842693D+03
 Normal termination of Gaussian 09 at Wed Aug 25 22:58:44 2021.

 ---------------------------------------------------------
 #P Geom=AllCheck Guess=TCheck SCRF=Check MP4=FrzG4/GTBas3
 ---------------------------------------------------------

 Structure from the checkpoint file:  "/public/home/users/caep010/.cache/gau_scr/Gau-93452.chk"
 ------
 YEYMAR
 ------
 Charge =  0 Multiplicity = 1

 SCF Done:  E(RHF) =  -656.972788994     A.U. after   12 cycles
 E2 =    -0.2308606838D+01 EUMP2 =    -0.65928139583230D+03
 Normal termination of Gaussian 09 at Thu Aug 26 03:45:44 2021.

 -----------------------------------------------------------
 #P Geom=AllCheck Guess=TCheck SCRF=Check MP2=Full/GTLargeXP
 -----------------------------------------------------------

 Structure from the checkpoint file:  "/public/home/users/caep010/.cache/gau_scr/Gau-93452.chk"
 ------
 YEYMAR
 ------
 Charge =  0 Multiplicity = 1

 SCF Done:  E(RHF) =  -657.137739222     A.U. after   15 cycles
 E2 =    -0.3025079384D+01 EUMP2 =    -0.66016281860615D+03
 Normal termination of Gaussian 09 at Thu Aug 26 03:58:25 2021.
 SCF Done:  E(RHF) =  -657.190696627     A.U. after   10 cycles
 Normal termination of Gaussian 09 at Thu Aug 26 04:05:11 2021.

                         Standard orientation:
 ---------------------------------------------------------------------
 Center     Atomic      Atomic             Coordinates (Angstroms)
 Number     Number       Type             X           Y           Z
 ---------------------------------------------------------------------
      1          8           0       -3.821452   -1.202617    0.110820
      2          7           0       -3.307296   -0.098197   -0.015270
      3          8           0       -3.926779    0.950398   -0.147108
      4          6           0       -1.837845   -0.025852   -0.007445
      5          6           0       -1.102232   -1.198308    0.144261
      6          6           0        0.280813   -1.123494    0.161218
      7          1           0       -1.622991   -2.139739    0.253949
      8          6           0        0.931951    0.111634    0.021533
      9          6           0        0.164174    1.273551   -0.137822
     10          6           0       -1.223255    1.211077   -0.151565
     11          6           0        2.408436    0.180648    0.040999
     12          7           0        3.055260   -0.895561   -0.258104
     13          7           0        3.007636    1.395250    0.308438
     14          1           0        4.003171    1.325524    0.463300
     15          8           0        4.442881   -0.665343   -0.172948
     16          1           0        4.809079   -1.522004   -0.413213
     17          1           0        2.531142    1.983416    0.974756
     18          1           0        0.654389    2.228777   -0.284011
     19          1           0       -1.832325    2.095555   -0.278445
     20          1           0        0.878895   -2.017014    0.285021
 ---------------------------------------------------------------------

 SCF Done:  E(RHF) =  -657.200907320     A.U. after    8 cycles

 The electronic state is 1-A.
 Alpha  occ. eigenvalues --  -20.60406 -20.60327 -20.60288 -15.85616 -15.61460
 Alpha  occ. eigenvalues --  -15.59275 -11.33610 -11.31566 -11.28892 -11.27950
 Alpha  occ. eigenvalues --  -11.27697 -11.27282 -11.26766  -1.60768  -1.43240
 Alpha  occ. eigenvalues --   -1.40161  -1.26535  -1.20336  -1.13701  -1.09388
 Alpha  occ. eigenvalues --   -1.05711  -0.97648  -0.87374  -0.85939  -0.79753
 Alpha  occ. eigenvalues --   -0.78609  -0.75408  -0.73458  -0.72287  -0.71122
 Alpha  occ. eigenvalues --   -0.67788  -0.66110  -0.65464  -0.64290  -0.62970
 Alpha  occ. eigenvalues --   -0.61487  -0.56482  -0.55025  -0.53435  -0.51109
 Alpha  occ. eigenvalues --   -0.49992  -0.49856  -0.46210  -0.45863  -0.40254
 Alpha  occ. eigenvalues --   -0.37513  -0.35018
 Alpha virt. eigenvalues --    0.02169   0.02782   0.03895   0.04250   0.04649
 Alpha virt. eigenvalues --    0.05623   0.05880   0.06909   0.07366   0.07572
 Alpha virt. eigenvalues --    0.08158   0.08224   0.08361   0.09402   0.09465

 Mulliken charges:
               1
     1  O   -0.431583
     2  N    0.519824
     3  O   -0.434009
     4  C    0.089554
     5  C   -0.192674
     6  C   -0.244452
     7  H    0.267872
     8  C    0.301010
     9  C   -0.241768
    10  C   -0.203951
    11  C    0.291036
    12  N   -0.280844
    13  N   -0.758229
    14  H    0.356883
    15  O   -0.523441
    16  H    0.409444
    17  H    0.326604
    18  H    0.235129
    19  H    0.267557
    20  H    0.246038
 Sum of Mulliken charges =  -0.00000

 Dipole moment (field-independent basis, Debye):
    X=              4.7545    Y=              1.0950    Z=              1.2307  Tot=              5.0318
 Quadrupole moment (field-independent basis, Debye-Ang):
   XX=            -92.0126   YY=            -67.3435   ZZ=            -75.8286
   XY=             -0.9721   XZ=              2.9562   YZ=              2.4491

 Normal termination of Gaussian 09 at Thu Aug 26 04:50:52 2021.
