 Gaussian 09, Revision E.01,
 Gaussian 09:  ES64L-G09RevE.01 30-Nov-2015

 ----------------
 #P G4 OPT=calcfc
 ----------------

 --------
 ZZZJIQ02
 --------
 Symbolic Z-matrix:
 Charge =  0 Multiplicity = 1

 SCF Done:  E(RB3LYP) =  -531.300279234     A.U. after   15 cycles
 SCF Done:  E(RB3LYP) =  -531.406013473     A.U. after   13 cycles
 SCF Done:  E(RB3LYP) =  -531.458595395     A.U. after   14 cycles
 SCF Done:  E(RB3LYP) =  -531.459692117     A.U. after   13 cycles
 SCF Done:  E(RB3LYP) =  -531.459929395     A.U. after   11 cycles
 SCF Done:  E(RB3LYP) =  -531.389889085     A.U. after   14 cycles
 SCF Done:  E(RB3LYP) =  -531.459932766     A.U. after    8 cycles
 SCF Done:  E(RB3LYP) =  -531.459628928     A.U. after   14 cycles
 SCF Done:  E(RB3LYP) =  -531.460496678     A.U. after   11 cycles
 SCF Done:  E(RB3LYP) =  -531.458137916     A.U. after   14 cycles
 SCF Done:  E(RB3LYP) =  -531.461196341     A.U. after    9 cycles
 SCF Done:  E(RB3LYP) =  -531.461196193     A.U. after    9 cycles
 SCF Done:  E(RB3LYP) =  -531.461196338     A.U. after    9 cycles
 Optimization completed.
    -- Stationary point found.
 Normal termination of Gaussian 09 at Fri Aug 27 01:25:27 2021.

 ----------------------------------------------------------
 #P Geom=AllCheck Guess=TCheck SCRF=Check B3LYP/GTBas3 Freq
 ----------------------------------------------------------

 Structure from the checkpoint file:  "/public/home/users/caep010/.cache/gau_scr/Gau-191712.chk"
 --------
 ZZZJIQ02
 --------
 Charge =  0 Multiplicity = 1

 SCF Done:  E(RB3LYP) =  -531.461196338     A.U. after    1 cycles

  Exact polarizability: 134.716   6.129 115.847   0.804   0.505  45.566
 Approx polarizability: 219.099  14.364 209.604   2.093   2.831  74.913

                      1                      2                      3
                      A                      A                      A
 Frequencies --     23.6105               123.9685               171.1498
 Red. masses --      9.2369                 3.4116                 4.7852
 Frc consts  --      0.0030                 0.0309                 0.0826
 IR Inten    --      0.0400                 2.3824                 0.8733

                      4                      5                      6
                      A                      A                      A
 Frequencies --    233.1114               240.1166               307.5322
 Red. masses --      4.9974                 1.0911                 1.0557
 Frc consts  --      0.1600                 0.0371                 0.0588
 IR Inten    --      1.7160                 0.3592                16.4841

                      7                      8                      9
                      A                      A                      A
 Frequencies --    325.4178               332.2230               393.6260
 Red. masses --      3.5554                 3.5211                 5.7048
 Frc consts  --      0.2218                 0.2290                 0.5208
 IR Inten    --      1.2819                 2.7393                 0.0721

                     10                     11                     12
                      A                      A                      A
 Frequencies --    411.4341               445.6285               480.8188
 Red. masses --      4.8712                 3.4315                 6.0443
 Frc consts  --      0.4858                 0.4015                 0.8233
 IR Inten    --      0.4012                 0.6991                 3.1843

                     13                     14                     15
                      A                      A                      A
 Frequencies --    544.0069               558.8359               601.7150
 Red. masses --      2.5491                 2.3452                 2.3382
 Frc consts  --      0.4445                 0.4315                 0.4988
 IR Inten    --     94.4045               130.7774               136.4241

                     16                     17                     18
                      A                      A                      A
 Frequencies --    700.5779               703.7695               771.2961
 Red. masses --      5.7354                 3.3679                 4.1059
 Frc consts  --      1.6585                 0.9828                 1.4391
 IR Inten    --      7.5114                 1.3434                 0.7188

                     19                     20                     21
                      A                      A                      A
 Frequencies --    794.0658               834.5461               842.2599
 Red. masses --      6.0850                 7.8826                 1.4563
 Frc consts  --      2.2606                 3.2346                 0.6087
 IR Inten    --     14.5047                30.1855                18.8880

                     22                     23                     24
                      A                      A                      A
 Frequencies --    910.7609               948.6326               953.9711
 Red. masses --      1.6320                 1.2953                 4.1597
 Frc consts  --      0.7976                 0.6868                 2.2304
 IR Inten    --     13.1311                 0.0479                 6.9115

                     25                     26                     27
                      A                      A                      A
 Frequencies --   1021.7935              1061.4816              1078.6370
 Red. masses --      1.5144                 1.5116                 2.9332
 Frc consts  --      0.9316                 1.0035                 2.0107
 IR Inten    --      2.0291                 2.3822                11.7916

                     28                     29                     30
                      A                      A                      A
 Frequencies --   1111.9897              1181.9077              1224.8400
 Red. masses --      1.3620                 1.2695                 2.4165
 Frc consts  --      0.9923                 1.0448                 2.1360
 IR Inten    --      0.3689                16.2456                 5.7459

                     31                     32                     33
                      A                      A                      A
 Frequencies --   1282.2568              1330.8092              1356.2720
 Red. masses --      1.9503                 2.4564                 4.1395
 Frc consts  --      1.8893                 2.5632                 4.4864
 IR Inten    --     16.0763                67.9962                45.9834

                     34                     35                     36
                      A                      A                      A
 Frequencies --   1387.3578              1423.0327              1454.8619
 Red. masses --     11.4209                 1.2294                 2.3362
 Frc consts  --     12.9517                 1.4668                 2.9135
 IR Inten    --    220.1053                 1.9163                 9.1725

                     37                     38                     39
                      A                      A                      A
 Frequencies --   1476.8318              1492.9010              1536.0121
 Red. masses --      1.0485                 1.2404                 3.3364
 Frc consts  --      1.3473                 1.6288                 4.6379
 IR Inten    --      4.7038                16.7173                51.0447

                     40                     41                     42
                      A                      A                      A
 Frequencies --   1598.9348              1625.2727              1655.1596
 Red. masses --      6.3832                 8.5215                 1.2964
 Frc consts  --      9.6150                13.2624                 2.0925
 IR Inten    --     76.1460               235.0390                67.7543

                     43                     44                     45
                      A                      A                      A
 Frequencies --   1676.8001              3048.5607              3115.8050
 Red. masses --      4.4740                 1.0357                 1.0992
 Frc consts  --      7.4116                 5.6712                 6.2874
 IR Inten    --     43.4608                22.4530                 7.3388

                     46                     47                     48
                      A                      A                      A
 Frequencies --   3121.7484              3167.1607              3185.5430
 Red. masses --      1.1024                 1.0864                 1.0938
 Frc consts  --      6.3298                 6.4205                 6.5394
 IR Inten    --     18.8064                10.6476                14.5697

                     49                     50                     51
                      A                      A                      A
 Frequencies --   3225.6994              3571.4234              3671.6409
 Red. masses --      1.0896                 1.0472                 1.0984
 Frc consts  --      6.6798                 7.8700                 8.7242
 IR Inten    --      4.6170                27.3730                16.1643

 - Thermochemistry -
 -------------------
 Temperature   298.150 Kelvin.  Pressure   1.00000 Atm.
 Atom     1 has atomic number  6 and mass  12.00000

 Molecular mass:   152.05858 amu.
 Principal axes and moments of inertia in atomic units:
                           1         2         3
     Eigenvalues --  1009.084231930.532582920.48126
           X            0.99825   0.05907   0.00257
           Y           -0.05907   0.99825  -0.00011
           Z           -0.00257  -0.00004   1.00000
 This molecule is an asymmetric top.
 Rotational symmetry number  1.
 Warning -- assumption of classical behavior for rotation
           may cause significant error
 Rotational temperatures (Kelvin)      0.08583     0.04487     0.02966
 Rotational constants (GHZ):           1.78849     0.93484     0.61796
 Zero-point vibrational energy     387218.1 (Joules/Mol)
                                   92.54734 (Kcal/Mol)
 Warning -- explicit consideration of  15 degrees of freedom as
           vibrations may cause significant error
 Vibrational temperatures:     33.97   178.36   246.25   335.39   345.47
          (Kelvin)            442.47   468.20   477.99   566.34   591.96
                              641.16   691.79   782.70   804.04   865.73
                             1007.97  1012.57  1109.72  1142.48  1200.72
                             1211.82  1310.38  1364.87  1372.55  1470.13
                             1527.23  1551.92  1599.90  1700.50  1762.27
                             1844.88  1914.74  1951.37  1996.10  2047.42
                             2093.22  2124.83  2147.95  2209.98  2300.51
                             2338.40  2381.40  2412.54  4386.19  4482.94
                             4491.49  4556.83  4583.28  4641.06  5138.48
                             5282.67

 Zero-point correction=                           0.147484 (Hartree/Particle)
 Thermal correction to Energy=                    0.157246
 Thermal correction to Enthalpy=                  0.158190
 Thermal correction to Gibbs Free Energy=         0.111772
 Sum of electronic and zero-point Energies=           -531.313713
 Sum of electronic and thermal Energies=              -531.303950
 Sum of electronic and thermal Enthalpies=            -531.303006
 Sum of electronic and thermal Free Energies=         -531.349424

                     E (Thermal)             CV                S
                      KCal/Mol        Cal/Mol-Kelvin    Cal/Mol-Kelvin
 Total                   98.673             37.415             97.695
 Electronic               0.000              0.000              0.000
 Translational            0.889              2.981             40.967
 Rotational               0.889              2.981             30.121
 Vibrational             96.896             31.453             26.607
 Vibration     1          0.593              1.985              6.305
 Vibration     2          0.610              1.929              3.038
 Vibration     3          0.626              1.878              2.423
 Vibration     4          0.654              1.790              1.855
 Vibration     5          0.657              1.779              1.802
 Vibration     6          0.697              1.659              1.376
 Vibration     7          0.710              1.625              1.283
 Vibration     8          0.714              1.611              1.249
 Vibration     9          0.761              1.484              0.986
 Vibration    10          0.775              1.445              0.922
 Vibration    11          0.805              1.371              0.809
 Vibration    12          0.837              1.293              0.708
 Vibration    13          0.899              1.153              0.557
 Vibration    14          0.914              1.120              0.526
 Vibration    15          0.960              1.028              0.447

 Optimization completed.
    -- Stationary point found.
 Normal termination of Gaussian 09 at Fri Aug 27 01:27:27 2021.

 -----------------------------------------------------------------
 #P Geom=AllCheck Guess=TCheck SCRF=Check CCSD(T,E4T,FrzG4)/GTBas1
 -----------------------------------------------------------------

 Structure from the checkpoint file:  "/public/home/users/caep010/.cache/gau_scr/Gau-191712.chk"
 --------
 ZZZJIQ02
 --------
 Charge =  0 Multiplicity = 1

 SCF Done:  E(RHF) =  -528.229330946     A.U. after   15 cycles
 E2 =    -0.1599958984D+01 EUMP2 =    -0.52982928993015D+03
 CCSD(T)
 CCSD(T)= -0.52993434173D+03
 659394\CCSD=-529.8629684\CCSD(T)=-529.9343417\RMSD=4.042e-09\PG=C01 [X
 Normal termination of Gaussian 09 at Fri Aug 27 02:06:07 2021.

 ---------------------------------------------------------
 #P Geom=AllCheck Guess=TCheck SCRF=Check MP4=FrzG4/GTBas2
 ---------------------------------------------------------

 Structure from the checkpoint file:  "/public/home/users/caep010/.cache/gau_scr/Gau-191712.chk"
 --------
 ZZZJIQ02
 --------
 Charge =  0 Multiplicity = 1

 SCF Done:  E(RHF) =  -528.244504090     A.U. after   15 cycles
 E2 =    -0.1620391144D+01 EUMP2 =    -0.52986489523387D+03
 Normal termination of Gaussian 09 at Fri Aug 27 02:18:43 2021.

 ---------------------------------------------------------
 #P Geom=AllCheck Guess=TCheck SCRF=Check MP4=FrzG4/GTBas3
 ---------------------------------------------------------

 Structure from the checkpoint file:  "/public/home/users/caep010/.cache/gau_scr/Gau-191712.chk"
 --------
 ZZZJIQ02
 --------
 Charge =  0 Multiplicity = 1

 SCF Done:  E(RHF) =  -528.287521539     A.U. after   12 cycles
 E2 =    -0.1917061976D+01 EUMP2 =    -0.53020458351445D+03
 Normal termination of Gaussian 09 at Fri Aug 27 04:07:53 2021.

 -----------------------------------------------------------
 #P Geom=AllCheck Guess=TCheck SCRF=Check MP2=Full/GTLargeXP
 -----------------------------------------------------------

 Structure from the checkpoint file:  "/public/home/users/caep010/.cache/gau_scr/Gau-191712.chk"
 --------
 ZZZJIQ02
 --------
 Charge =  0 Multiplicity = 1

 SCF Done:  E(RHF) =  -528.414454114     A.U. after   14 cycles
 E2 =    -0.2514398658D+01 EUMP2 =    -0.53092885277168D+03
 Normal termination of Gaussian 09 at Fri Aug 27 04:21:11 2021.
 SCF Done:  E(RHF) =  -528.456702167     A.U. after   10 cycles
 Normal termination of Gaussian 09 at Fri Aug 27 04:26:19 2021.

                         Standard orientation:
 ---------------------------------------------------------------------
 Center     Atomic      Atomic             Coordinates (Angstroms)
 Number     Number       Type             X           Y           Z
 ---------------------------------------------------------------------
      1          6           0       -1.996166   -0.312593    0.023396
      2          7           0       -3.175862   -1.044727    0.110626
      3          6           0       -0.753824   -0.947080    0.019113
      4          6           0        0.421852   -0.202188    0.003409
      5          7           0        1.670826   -0.992018    0.005786
      6          8           0        2.732339   -0.401273    0.167409
      7          8           0        1.581466   -2.204777   -0.149903
      8          6           0        0.440542    1.202483   -0.019147
      9          6           0       -0.823620    1.806526   -0.026924
     10          6           0        1.667238    2.078411   -0.048823
     11          6           0       -2.009146    1.089157   -0.002908
     12          1           0       -3.113508   -2.002213   -0.202113
     13          1           0       -3.998031   -0.583477   -0.249312
     14          1           0       -0.675656   -2.025953    0.030611
     15          1           0        1.363900    3.124063   -0.149740
     16          1           0        2.332956    1.824926   -0.877401
     17          1           0        2.263271    1.972049    0.860880
     18          1           0       -0.871338    2.890496   -0.053695
     19          1           0       -2.958032    1.617432   -0.002842
 ---------------------------------------------------------------------

 SCF Done:  E(RHF) =  -528.464861100     A.U. after    8 cycles

 The electronic state is 1-A.
 Alpha  occ. eigenvalues --  -20.59397 -20.59170 -15.84650 -15.58141 -11.30674
 Alpha  occ. eigenvalues --  -11.30026 -11.26986 -11.25676 -11.25609 -11.25518
 Alpha  occ. eigenvalues --  -11.22932  -1.59819  -1.39094  -1.24771  -1.17575
 Alpha  occ. eigenvalues --   -1.07910  -1.04869  -0.97382  -0.92132  -0.84537
 Alpha  occ. eigenvalues --   -0.82336  -0.76396  -0.72945  -0.71508  -0.70546
 Alpha  occ. eigenvalues --   -0.68641  -0.65220  -0.63183  -0.61176  -0.58232
 Alpha  occ. eigenvalues --   -0.55448  -0.54997  -0.53933  -0.52622  -0.48941
 Alpha  occ. eigenvalues --   -0.48059  -0.46687  -0.44848  -0.37096  -0.31406
 Alpha virt. eigenvalues --    0.02785   0.03477   0.04142   0.04599   0.05318
 Alpha virt. eigenvalues --    0.05541   0.06256   0.07216   0.07472   0.08276
 Alpha virt. eigenvalues --    0.08347   0.08712   0.09344   0.09578   0.10062

 Mulliken charges:
               1
     1  C    0.264265
     2  N   -0.719849
     3  C   -0.206533
     4  C    0.098343
     5  N    0.508150
     6  O   -0.425382
     7  O   -0.448666
     8  C    0.175173
     9  C   -0.193135
    10  C   -0.633613
    11  C   -0.235083
    12  H    0.311047
    13  H    0.307794
    14  H    0.229108
    15  H    0.170788
    16  H    0.204684
    17  H    0.206274
    18  H    0.201460
    19  H    0.185176
 Sum of Mulliken charges =  -0.00000

 Dipole moment (field-independent basis, Debye):
    X=             -4.9272    Y=              2.3273    Z=             -0.9826  Tot=              5.5371
 Quadrupole moment (field-independent basis, Debye-Ang):
   XX=            -63.2006   YY=            -61.9833   ZZ=            -67.2387
   XY=              6.9245   XZ=              3.4881   YZ=              0.7426

 Normal termination of Gaussian 09 at Fri Aug 27 05:00:45 2021.
