 Gaussian 09, Revision E.01,
 Gaussian 09:  ES64L-G09RevE.01 30-Nov-2015

 ----------------
 #P G4 OPT=calcfc
 ----------------

 --------
 ZZZQSC01
 --------
 Symbolic Z-matrix:
 Charge =  0 Multiplicity = 1

 SCF Done:  E(RB3LYP) =  -680.495606266     A.U. after   16 cycles
 SCF Done:  E(RB3LYP) =  -680.572763089     A.U. after   15 cycles
 SCF Done:  E(RB3LYP) =  -680.595742647     A.U. after   17 cycles
 SCF Done:  E(RB3LYP) =  -680.566280260     A.U. after   17 cycles
 SCF Done:  E(RB3LYP) =  -680.601748397     A.U. after   13 cycles
 SCF Done:  E(RB3LYP) =  -680.599376610     A.U. after   15 cycles
 SCF Done:  E(RB3LYP) =  -680.601887793     A.U. after   10 cycles
 SCF Done:  E(RB3LYP) =  -680.602928196     A.U. after   14 cycles
 SCF Done:  E(RB3LYP) =  -680.603300036     A.U. after   13 cycles
 SCF Done:  E(RB3LYP) =  -680.603361142     A.U. after   14 cycles
 SCF Done:  E(RB3LYP) =  -680.603467879     A.U. after   12 cycles
 SCF Done:  E(RB3LYP) =  -680.603469970     A.U. after    9 cycles
 SCF Done:  E(RB3LYP) =  -680.603470177     A.U. after    8 cycles
 Optimization completed.
    -- Stationary point found.
 Normal termination of Gaussian 09 at Wed Aug 25 07:47:10 2021.

 ----------------------------------------------------------
 #P Geom=AllCheck Guess=TCheck SCRF=Check B3LYP/GTBas3 Freq
 ----------------------------------------------------------

 Structure from the checkpoint file:  "/public/home/users/caep010/.cache/gau_scr/Gau-203231.chk"
 --------
 ZZZQSC01
 --------
 Charge =  0 Multiplicity = 1

 SCF Done:  E(RB3LYP) =  -680.603470177     A.U. after    3 cycles

  Exact polarizability: 133.948   0.002 121.957  -0.005   2.459  53.391
 Approx polarizability: 217.461   0.004 231.438  -0.014  22.792  98.246

                      1                      2                      3
                      A                      A                      A
 Frequencies --     49.5419                63.2933                99.3411
 Red. masses --     10.9044                11.0125                 5.8860
 Frc consts  --      0.0158                 0.0260                 0.0342
 IR Inten    --      0.2289                 2.9692                 1.9340

                      4                      5                      6
                      A                      A                      A
 Frequencies --    176.6665               178.0365               203.5726
 Red. masses --      1.3254                 3.6911                10.6666
 Frc consts  --      0.0244                 0.0689                 0.2604
 IR Inten    --      0.9338                 0.0001                 6.8044

                      7                      8                      9
                      A                      A                      A
 Frequencies --    239.2365               312.4047               328.2317
 Red. masses --      3.9119                 4.7129                11.2890
 Frc consts  --      0.1319                 0.2710                 0.7166
 IR Inten    --      0.2519                 0.2637                 1.4441

                     10                     11                     12
                      A                      A                      A
 Frequencies --    384.9197               401.0571               470.6404
 Red. masses --      3.3758                 6.5593                 6.1466
 Frc consts  --      0.2947                 0.6216                 0.8022
 IR Inten    --      0.9639                 1.6233                 1.4871

                     13                     14                     15
                      A                      A                      A
 Frequencies --    475.6021               519.6267               589.3814
 Red. masses --      4.5007                 3.9749                 6.3801
 Frc consts  --      0.5998                 0.6324                 1.3058
 IR Inten    --      0.0018                 1.3799                 2.0613

                     16                     17                     18
                      A                      A                      A
 Frequencies --    633.2757               703.2428               725.6283
 Red. masses --      5.3388                 4.8942                 8.7099
 Frc consts  --      1.2615                 1.4261                 2.7021
 IR Inten    --      0.4922                 0.7666                38.3108

                     19                     20                     21
                      A                      A                      A
 Frequencies --    752.2444               792.0692               804.3095
 Red. masses --      2.1574                 8.2048                 5.3622
 Frc consts  --      0.7193                 3.0328                 2.0438
 IR Inten    --     38.7903                 1.0206                 2.9229

                     22                     23                     24
                      A                      A                      A
 Frequencies --    848.8343               856.6420               906.4790
 Red. masses --      2.1558                 9.1462                 5.6356
 Frc consts  --      0.9152                 3.9545                 2.7284
 IR Inten    --      7.6871                 9.3272                49.8880

                     25                     26                     27
                      A                      A                      A
 Frequencies --    961.6994               987.0584              1044.4759
 Red. masses --      1.4119                 1.3182                 1.6157
 Frc consts  --      0.7694                 0.7567                 1.0385
 IR Inten    --      2.6506                 1.2928                 3.0170

                     28                     29                     30
                      A                      A                      A
 Frequencies --   1054.8241              1106.7136              1148.2578
 Red. masses --      1.5679                 2.0222                 9.4586
 Frc consts  --      1.0278                 1.4593                 7.3478
 IR Inten    --      0.5912                10.8128                 0.9314

                     31                     32                     33
                      A                      A                      A
 Frequencies --   1184.6938              1215.6588              1240.4431
 Red. masses --      1.1757                 2.8053                 1.7634
 Frc consts  --      0.9722                 2.4426                 1.5987
 IR Inten    --      0.0913                 4.6068                 9.6558

                     34                     35                     36
                      A                      A                      A
 Frequencies --   1340.7045              1393.3285              1399.9914
 Red. masses --      7.3635                13.8365                11.7362
 Frc consts  --      7.7983                15.8264                13.5528
 IR Inten    --     15.7243               355.0355                48.3442

                     37                     38                     39
                      A                      A                      A
 Frequencies --   1420.4207              1452.7791              1473.9289
 Red. masses --      1.1830                 1.4387                 2.0236
 Frc consts  --      1.4062                 1.7890                 2.5902
 IR Inten    --      5.8526                 7.6494                 2.1550

                     40                     41                     42
                      A                      A                      A
 Frequencies --   1485.5669              1489.3622              1602.4859
 Red. masses --      1.4835                 1.4207                 6.6342
 Frc consts  --      1.9290                 1.8567                10.0376
 IR Inten    --     14.7550                14.0596                 0.9502

                     43                     44                     45
                      A                      A                      A
 Frequencies --   1619.9769              1637.6405              1663.9589
 Red. masses --      8.2026                11.4567                 9.7136
 Frc consts  --     12.6830                18.1028                15.8458
 IR Inten    --    200.0077                74.6423               193.6198

                     46                     47                     48
                      A                      A                      A
 Frequencies --   3074.1354              3141.0922              3170.4811
 Red. masses --      1.0394                 1.0950                 1.1036
 Frc consts  --      5.7872                 6.3656                 6.5358
 IR Inten    --      1.9356                 5.1139                 5.8406

                     49                     50                     51
                      A                      A                      A
 Frequencies --   3207.1593              3232.5653              3235.4255
 Red. masses --      1.0887                 1.0908                 1.0953
 Frc consts  --      6.5976                 6.7160                 6.7554
 IR Inten    --      2.8749                 3.6476                 0.0919

 - Thermochemistry -
 -------------------
 Temperature   298.150 Kelvin.  Pressure   1.00000 Atm.
 Atom     1 has atomic number  8 and mass  15.99491

 Molecular mass:   182.03276 amu.
 Principal axes and moments of inertia in atomic units:
                           1         2         3
     Eigenvalues --  1140.986343105.018454098.76311
           X            1.00000   0.00000  -0.00000
           Y           -0.00000   0.99989  -0.01480
           Z            0.00000   0.01480   0.99989
 This molecule is an asymmetric top.
 Rotational symmetry number  1.
 Warning -- assumption of classical behavior for rotation
           may cause significant error
 Rotational temperatures (Kelvin)      0.07591     0.02789     0.02113
 Rotational constants (GHZ):           1.58174     0.58123     0.44031
 Zero-point vibrational energy     349902.4 (Joules/Mol)
                                   83.62867 (Kcal/Mol)
 Warning -- explicit consideration of  15 degrees of freedom as
           vibrations may cause significant error
 Vibrational temperatures:     71.28    91.06   142.93   254.18   256.15
          (Kelvin)            292.90   344.21   449.48   472.25   553.81
                              577.03   677.15   684.28   747.63   847.99
                              911.14  1011.81  1044.02  1082.31  1139.61
                             1157.22  1221.28  1232.52  1304.22  1383.67
                             1420.16  1502.77  1517.65  1592.31  1652.08
                             1704.51  1749.06  1784.72  1928.97  2004.69
                             2014.27  2043.67  2090.22  2120.65  2137.40
                             2142.86  2305.62  2330.78  2356.20  2394.06
                             4422.99  4519.33  4561.61  4614.38  4650.93
                             4655.05

 Zero-point correction=                           0.133271 (Hartree/Particle)
 Thermal correction to Energy=                    0.144112
 Thermal correction to Enthalpy=                  0.145056
 Thermal correction to Gibbs Free Energy=         0.095724
 Sum of electronic and zero-point Energies=           -680.470199
 Sum of electronic and thermal Energies=              -680.459359
 Sum of electronic and thermal Enthalpies=            -680.458414
 Sum of electronic and thermal Free Energies=         -680.507746

                     E (Thermal)             CV                S
                      KCal/Mol        Cal/Mol-Kelvin    Cal/Mol-Kelvin
 Total                   90.431             40.097            103.827
 Electronic               0.000              0.000              0.000
 Translational            0.889              2.981             41.504
 Rotational               0.889              2.981             31.052
 Vibrational             88.654             34.136             31.271
 Vibration     1          0.595              1.978              4.836
 Vibration     2          0.597              1.972              4.352
 Vibration     3          0.604              1.950              3.467
 Vibration     4          0.628              1.871              2.363
 Vibration     5          0.628              1.869              2.349
 Vibration     6          0.639              1.835              2.101
 Vibration     7          0.657              1.780              1.809
 Vibration     8          0.701              1.650              1.350
 Vibration     9          0.711              1.619              1.269
 Vibration    10          0.754              1.502              1.020
 Vibration    11          0.767              1.468              0.959
 Vibration    12          0.828              1.315              0.736
 Vibration    13          0.832              1.304              0.722
 Vibration    14          0.875              1.207              0.611
 Vibration    15          0.947              1.054              0.468

 Optimization completed.
    -- Stationary point found.
 Normal termination of Gaussian 09 at Wed Aug 25 07:50:15 2021.

 -----------------------------------------------------------------
 #P Geom=AllCheck Guess=TCheck SCRF=Check CCSD(T,E4T,FrzG4)/GTBas1
 -----------------------------------------------------------------

 Structure from the checkpoint file:  "/public/home/users/caep010/.cache/gau_scr/Gau-203231.chk"
 --------
 ZZZQSC01
 --------
 Charge =  0 Multiplicity = 1

 SCF Done:  E(RHF) =  -676.656619501     A.U. after   16 cycles
 E2 =    -0.1978181890D+01 EUMP2 =    -0.67863480139160D+03
 CCSD(T)
 CCSD(T)= -0.67874075637D+03
 6554909\CCSD=-678.648582\CCSD(T)=-678.7407564\RMSD=5.407e-09\PG=C01 [X
 Normal termination of Gaussian 09 at Wed Aug 25 09:14:13 2021.

 ---------------------------------------------------------
 #P Geom=AllCheck Guess=TCheck SCRF=Check MP4=FrzG4/GTBas2
 ---------------------------------------------------------

 Structure from the checkpoint file:  "/public/home/users/caep010/.cache/gau_scr/Gau-203231.chk"
 --------
 ZZZQSC01
 --------
 Charge =  0 Multiplicity = 1

 SCF Done:  E(RHF) =  -676.675054684     A.U. after   14 cycles
 E2 =    -0.2004746596D+01 EUMP2 =    -0.67867980128025D+03
 Normal termination of Gaussian 09 at Wed Aug 25 09:46:53 2021.

 ---------------------------------------------------------
 #P Geom=AllCheck Guess=TCheck SCRF=Check MP4=FrzG4/GTBas3
 ---------------------------------------------------------

 Structure from the checkpoint file:  "/public/home/users/caep010/.cache/gau_scr/Gau-203231.chk"
 --------
 ZZZQSC01
 --------
 Charge =  0 Multiplicity = 1

 SCF Done:  E(RHF) =  -676.724617748     A.U. after   12 cycles
 E2 =    -0.2360129848D+01 EUMP2 =    -0.67908474759572D+03
 Normal termination of Gaussian 09 at Wed Aug 25 13:20:54 2021.

 -----------------------------------------------------------
 #P Geom=AllCheck Guess=TCheck SCRF=Check MP2=Full/GTLargeXP
 -----------------------------------------------------------

 Structure from the checkpoint file:  "/public/home/users/caep010/.cache/gau_scr/Gau-203231.chk"
 --------
 ZZZQSC01
 --------
 Charge =  0 Multiplicity = 1

 SCF Done:  E(RHF) =  -676.892131293     A.U. after   14 cycles
 E2 =    -0.3079759543D+01 EUMP2 =    -0.67997189083643D+03
 Normal termination of Gaussian 09 at Wed Aug 25 13:34:42 2021.
 SCF Done:  E(RHF) =  -676.946824460     A.U. after   10 cycles
 Normal termination of Gaussian 09 at Wed Aug 25 13:41:49 2021.

                         Standard orientation:
 ---------------------------------------------------------------------
 Center     Atomic      Atomic             Coordinates (Angstroms)
 Number     Number       Type             X           Y           Z
 ---------------------------------------------------------------------
      1          8           0        3.423736    0.279366    0.516884
      2          7           0        2.508072   -0.356376    0.012584
      3          8           0        2.618026   -1.463612   -0.495585
      4          6           0        1.177240    0.289017   -0.015841
      5          6           0        1.195065    1.674564   -0.139768
      6          6           0       -0.000048   -0.475306    0.064479
      7          1           0        2.152510    2.176861   -0.176777
      8          6           0        0.000072    2.374688   -0.212865
      9          1           0        0.000120    3.452293   -0.322304
     10          6           0       -1.195000    1.674692   -0.139473
     11          1           0       -2.152385    2.177036   -0.176293
     12          6           0       -1.177232    0.289138   -0.015616
     13          7           0       -2.508064   -0.356312    0.012540
     14          8           0       -3.423799    0.279188    0.517041
     15          8           0       -2.617895   -1.463353   -0.496061
     16          6           0       -0.000148   -1.964226    0.307026
     17          1           0       -0.889044   -2.267984    0.857651
     18          1           0        0.889341   -2.268170    0.856303
     19          1           0       -0.000829   -2.509320   -0.640337
 ---------------------------------------------------------------------

 SCF Done:  E(RHF) =  -676.957368811     A.U. after    8 cycles

 The electronic state is 1-A.
 Alpha  occ. eigenvalues --  -20.61787 -20.61787 -20.61662 -20.61661 -15.86961
 Alpha  occ. eigenvalues --  -15.86960 -11.33552 -11.33543 -11.32839 -11.30273
 Alpha  occ. eigenvalues --  -11.30269 -11.28493 -11.25170  -1.62323  -1.62302
 Alpha  occ. eigenvalues --   -1.41726  -1.41712  -1.23771  -1.13835  -1.11273
 Alpha  occ. eigenvalues --   -1.03173  -0.97800  -0.95076  -0.86342  -0.84543
 Alpha  occ. eigenvalues --   -0.80053  -0.76495  -0.74634  -0.74488  -0.74104
 Alpha  occ. eigenvalues --   -0.73261  -0.71771  -0.68173  -0.63452  -0.61025
 Alpha  occ. eigenvalues --   -0.60289  -0.57465  -0.57046  -0.55137  -0.51657
 Alpha  occ. eigenvalues --   -0.51404  -0.51143  -0.50266  -0.47129  -0.46589
 Alpha  occ. eigenvalues --   -0.40526  -0.38920
 Alpha virt. eigenvalues --    0.01951   0.02582   0.03599   0.04259   0.04267
 Alpha virt. eigenvalues --    0.04987   0.05588   0.06191   0.06371   0.06920
 Alpha virt. eigenvalues --    0.07748   0.08558   0.08666   0.08744   0.09053

 Mulliken charges:
               1
     1  O   -0.429152
     2  N    0.482173
     3  O   -0.403651
     4  C    0.146751
     5  C   -0.202172
     6  C    0.216469
     7  H    0.259252
     8  C   -0.149841
     9  H    0.233699
    10  C   -0.202160
    11  H    0.259257
    12  C    0.146848
    13  N    0.482164
    14  O   -0.429149
    15  O   -0.403637
    16  C   -0.647589
    17  H    0.212148
    18  H    0.212222
    19  H    0.216367
 Sum of Mulliken charges =  -0.00000

 Dipole moment (field-independent basis, Debye):
    X=              0.0000    Y=              3.3730    Z=             -0.1525  Tot=              3.3764
 Quadrupole moment (field-independent basis, Debye-Ang):
   XX=           -100.2204   YY=            -66.6944   ZZ=            -75.5041
   XY=              0.0004   XZ=             -0.0015   YZ=             -4.6738

 Normal termination of Gaussian 09 at Wed Aug 25 14:29:56 2021.
