 Gaussian 09, Revision E.01,
 Gaussian 09:  ES64L-G09RevE.01 30-Nov-2015

 ----------------
 #P G4 OPT=calcfc
 ----------------

 ------
 ZUGPOG
 ------
 Symbolic Z-matrix:
 Charge =  0 Multiplicity = 1

 SCF Done:  E(RB3LYP) =  -568.244433887     A.U. after   16 cycles
 SCF Done:  E(RB3LYP) =  -568.317463611     A.U. after   13 cycles
 SCF Done:  E(RB3LYP) =  -568.333765744     A.U. after   14 cycles
 SCF Done:  E(RB3LYP) =  -568.338520703     A.U. after   14 cycles
 SCF Done:  E(RB3LYP) =  -568.339119623     A.U. after   13 cycles
 SCF Done:  E(RB3LYP) =  -568.338446188     A.U. after   17 cycles
 SCF Done:  E(RB3LYP) =  -568.339164218     A.U. after   13 cycles
 SCF Done:  E(RB3LYP) =  -568.280380741     A.U. after   14 cycles
 SCF Done:  E(RB3LYP) =  -568.339218201     A.U. after   10 cycles
 SCF Done:  E(RB3LYP) =  -568.339293684     A.U. after   14 cycles
 SCF Done:  E(RB3LYP) =  -568.339297813     A.U. after   11 cycles
 SCF Done:  E(RB3LYP) =  -568.339297868     A.U. after    9 cycles
 SCF Done:  E(RB3LYP) =  -568.339297852     A.U. after    8 cycles
 Optimization completed.
    -- Stationary point found.
 Normal termination of Gaussian 09 at Thu Aug 26 06:18:12 2021.

 ----------------------------------------------------------
 #P Geom=AllCheck Guess=TCheck SCRF=Check B3LYP/GTBas3 Freq
 ----------------------------------------------------------

 Structure from the checkpoint file:  "/public/home/users/caep010/.cache/gau_scr/Gau-127358.chk"
 ------
 ZUGPOG
 ------
 Charge =  0 Multiplicity = 1

 SCF Done:  E(RB3LYP) =  -568.339297852     A.U. after    1 cycles

  Exact polarizability: 125.169   2.582 137.208   0.001   0.001  47.316
 Approx polarizability: 200.844  11.557 266.651   0.006   0.009  78.077

                      1                      2                      3
                      A                      A                      A
 Frequencies --     20.4855                85.2382               102.1248
 Red. masses --     14.5478                 5.1285                 1.0322
 Frc consts  --      0.0036                 0.0220                 0.0063
 IR Inten    --      0.3982                 0.2070                 0.7139

                      4                      5                      6
                      A                      A                      A
 Frequencies --    175.6950               192.8358               220.1456
 Red. masses --     11.3973                 5.7316                 5.6398
 Frc consts  --      0.2073                 0.1256                 0.1610
 IR Inten    --      3.4173                 2.9714                 2.6179

                      7                      8                      9
                      A                      A                      A
 Frequencies --    225.6564               364.3413               372.0538
 Red. masses --      3.4149                 6.3869                 4.7335
 Frc consts  --      0.1025                 0.4995                 0.3860
 IR Inten    --      0.0509                 2.4533                 1.2919

                     10                     11                     12
                      A                      A                      A
 Frequencies --    417.9054               451.8291               499.6297
 Red. masses --      5.6318                 9.6992                 6.3418
 Frc consts  --      0.5795                 1.1666                 0.9327
 IR Inten    --      2.3293                 2.4257                 1.5582

                     13                     14                     15
                      A                      A                      A
 Frequencies --    505.8228               589.4517               594.0231
 Red. masses --      4.1417                 4.5104                 6.4803
 Frc consts  --      0.6243                 0.9233                 1.3473
 IR Inten    --      4.0644                 2.6608                 0.1098

                     16                     17                     18
                      A                      A                      A
 Frequencies --    634.1916               735.1721               778.8674
 Red. masses --      6.4851                 6.2715                 1.9712
 Frc consts  --      1.5368                 1.9971                 0.7046
 IR Inten    --      4.8315                 5.9828                26.7883

                     19                     20                     21
                      A                      A                      A
 Frequencies --    780.4669               822.9452               841.8007
 Red. masses --      6.9926                 6.7145                 2.1664
 Frc consts  --      2.5096                 2.6792                 0.9045
 IR Inten    --     12.4868                16.7134                 6.2686

                     22                     23                     24
                      A                      A                      A
 Frequencies --    928.2906               945.7876               993.1621
 Red. masses --      5.2395                 1.3714                 1.3126
 Frc consts  --      2.6601                 0.7228                 0.7628
 IR Inten    --     22.6008                 0.3535                 0.5549

                     25                     26                     27
                      A                      A                      A
 Frequencies --   1028.6665              1064.9884              1105.5293
 Red. masses --      1.6755                 1.5624                 1.8633
 Frc consts  --      1.0446                 1.0441                 1.3417
 IR Inten    --      5.3557                 2.6020                 6.5479

                     28                     29                     30
                      A                      A                      A
 Frequencies --   1182.0854              1194.3686              1220.7831
 Red. masses --      2.9204                 1.4234                 2.8069
 Frc consts  --      2.4043                 1.1964                 2.4647
 IR Inten    --      4.2093                 1.7763                17.5720

                     31                     32                     33
                      A                      A                      A
 Frequencies --   1271.5442              1335.3993              1388.6362
 Red. masses --      2.1173                 6.9682                14.1684
 Frc consts  --      2.0169                 7.3214                16.0971
 IR Inten    --      2.1539                14.1049               218.5585

                     34                     35                     36
                      A                      A                      A
 Frequencies --   1419.6411              1461.2090              1477.8182
 Red. masses --      1.2260                 1.8425                 1.0419
 Frc consts  --      1.4558                 2.3178                 1.3407
 IR Inten    --      4.0360                 0.2138                 7.9395

                     37                     38                     39
                      A                      A                      A
 Frequencies --   1488.7503              1496.3042              1597.3879
 Red. masses --      2.8373                 1.3981                 6.1524
 Frc consts  --      3.7051                 1.8443                 9.2495
 IR Inten    --     11.1656                16.3559                 0.6696

                     40                     41                     42
                      A                      A                      A
 Frequencies --   1624.8448              1665.3286              2337.7479
 Red. masses --      8.6761                 9.6590                12.6766
 Frc consts  --     13.4957                15.7827                40.8176
 IR Inten    --    154.2397                66.6456                 4.5684

                     43                     44                     45
                      A                      A                      A
 Frequencies --   3045.0828              3102.9439              3132.8131
 Red. masses --      1.0366                 1.0993                 1.1023
 Frc consts  --      5.6629                 6.2359                 6.3739
 IR Inten    --      6.6463                 3.8907                10.9250

                     46                     47                     48
                      A                      A                      A
 Frequencies --   3185.3710              3203.8628              3245.8060
 Red. masses --      1.0876                 1.0937                 1.0922
 Frc consts  --      6.5018                 6.6145                 6.7796
 IR Inten    --      4.1944                 6.9461                 4.8366

 - Thermochemistry -
 -------------------
 Temperature   298.150 Kelvin.  Pressure   1.00000 Atm.
 Atom     1 has atomic number  6 and mass  12.00000

 Molecular mass:   162.04293 amu.
 Principal axes and moments of inertia in atomic units:
                           1         2         3
     Eigenvalues --  1342.313931877.574393208.82496
           X            0.99986   0.01670  -0.00000
           Y           -0.01670   0.99986  -0.00000
           Z            0.00000   0.00000   1.00000
 This molecule is an asymmetric top.
 Rotational symmetry number  1.
 Warning -- assumption of classical behavior for rotation
           may cause significant error
 Rotational temperatures (Kelvin)      0.06453     0.04613     0.02699
 Rotational constants (GHZ):           1.34450     0.96121     0.56243
 Zero-point vibrational energy     338273.0 (Joules/Mol)
                                   80.84919 (Kcal/Mol)
 Warning -- explicit consideration of  15 degrees of freedom as
           vibrations may cause significant error
 Vibrational temperatures:     29.47   122.64   146.93   252.79   277.45
          (Kelvin)            316.74   324.67   524.21   535.30   601.27
                              650.08   718.85   727.77   848.09   854.67
                              912.46  1057.75  1120.62  1122.92  1184.03
                             1211.16  1335.60  1360.78  1428.94  1480.02
                             1532.28  1590.61  1700.76  1718.43  1756.43
                             1829.47  1921.34  1997.94  2042.54  2102.35
                             2126.25  2141.98  2152.85  2298.28  2337.79
                             2396.03  3363.49  4381.19  4464.44  4507.41
                             4583.03  4609.64  4669.99

 Zero-point correction=                           0.128841 (Hartree/Particle)
 Thermal correction to Energy=                    0.139185
 Thermal correction to Enthalpy=                  0.140130
 Thermal correction to Gibbs Free Energy=         0.091547
 Sum of electronic and zero-point Energies=           -568.210456
 Sum of electronic and thermal Energies=              -568.200112
 Sum of electronic and thermal Enthalpies=            -568.199168
 Sum of electronic and thermal Free Energies=         -568.247750

                     E (Thermal)             CV                S
                      KCal/Mol        Cal/Mol-Kelvin    Cal/Mol-Kelvin
 Total                   87.340             37.739            102.250
 Electronic               0.000              0.000              0.000
 Translational            0.889              2.981             41.157
 Rotational               0.889              2.981             30.471
 Vibrational             85.563             31.777             30.622
 Vibration     1          0.593              1.986              6.587
 Vibration     2          0.601              1.959              3.767
 Vibration     3          0.604              1.947              3.413
 Vibration     4          0.628              1.872              2.374
 Vibration     5          0.635              1.850              2.200
 Vibration     6          0.647              1.810              1.958
 Vibration     7          0.650              1.802              1.913
 Vibration     8          0.738              1.546              1.104
 Vibration     9          0.744              1.530              1.071
 Vibration    10          0.781              1.431              0.899
 Vibration    11          0.810              1.357              0.790
 Vibration    12          0.855              1.251              0.659
 Vibration    13          0.861              1.237              0.644
 Vibration    14          0.947              1.054              0.468
 Vibration    15          0.952              1.045              0.460

 Optimization completed.
    -- Stationary point found.
 Normal termination of Gaussian 09 at Thu Aug 26 06:20:30 2021.

 -----------------------------------------------------------------
 #P Geom=AllCheck Guess=TCheck SCRF=Check CCSD(T,E4T,FrzG4)/GTBas1
 -----------------------------------------------------------------

 Structure from the checkpoint file:  "/public/home/users/caep010/.cache/gau_scr/Gau-127358.chk"
 ------
 ZUGPOG
 ------
 Charge =  0 Multiplicity = 1

 SCF Done:  E(RHF) =  -564.925131772     A.U. after   15 cycles
 E2 =    -0.1717737653D+01 EUMP2 =    -0.56664286942568D+03
 CCSD(T)
 CCSD(T)= -0.56674742251D+03
 66.7661899\MP4SDQ=-566.6707766\CCSD=-566.6657438\CCSD(T)=-566.7474225\
 Normal termination of Gaussian 09 at Thu Aug 26 07:04:48 2021.

 ---------------------------------------------------------
 #P Geom=AllCheck Guess=TCheck SCRF=Check MP4=FrzG4/GTBas2
 ---------------------------------------------------------

 Structure from the checkpoint file:  "/public/home/users/caep010/.cache/gau_scr/Gau-127358.chk"
 ------
 ZUGPOG
 ------
 Charge =  0 Multiplicity = 1

 SCF Done:  E(RHF) =  -564.939197255     A.U. after   16 cycles
 E2 =    -0.1737247803D+01 EUMP2 =    -0.56667644505767D+03
 Normal termination of Gaussian 09 at Thu Aug 26 07:21:20 2021.

 ---------------------------------------------------------
 #P Geom=AllCheck Guess=TCheck SCRF=Check MP4=FrzG4/GTBas3
 ---------------------------------------------------------

 Structure from the checkpoint file:  "/public/home/users/caep010/.cache/gau_scr/Gau-127358.chk"
 ------
 ZUGPOG
 ------
 Charge =  0 Multiplicity = 1

 SCF Done:  E(RHF) =  -564.979760535     A.U. after   13 cycles
 E2 =    -0.2036481459D+01 EUMP2 =    -0.56701624199411D+03
 Normal termination of Gaussian 09 at Thu Aug 26 09:53:32 2021.

 -----------------------------------------------------------
 #P Geom=AllCheck Guess=TCheck SCRF=Check MP2=Full/GTLargeXP
 -----------------------------------------------------------

 Structure from the checkpoint file:  "/public/home/users/caep010/.cache/gau_scr/Gau-127358.chk"
 ------
 ZUGPOG
 ------
 Charge =  0 Multiplicity = 1

 SCF Done:  E(RHF) =  -565.111362006     A.U. after   15 cycles
 E2 =    -0.2677745772D+01 EUMP2 =    -0.56778910777763D+03
 Normal termination of Gaussian 09 at Thu Aug 26 10:10:37 2021.
 SCF Done:  E(RHF) =  -565.155767305     A.U. after   10 cycles
 Normal termination of Gaussian 09 at Thu Aug 26 10:16:23 2021.

                         Standard orientation:
 ---------------------------------------------------------------------
 Center     Atomic      Atomic             Coordinates (Angstroms)
 Number     Number       Type             X           Y           Z
 ---------------------------------------------------------------------
      1          6           0        0.436687    0.384502    0.000002
      2          6           0       -0.700252   -0.439279    0.000015
      3          6           0       -0.602395   -1.822697    0.000032
      4          6           0        0.656059   -2.409326    0.000059
      5          1           0        0.746821   -3.489554    0.000085
      6          6           0        1.795769   -1.612072    0.000050
      7          1           0        2.776158   -2.076645    0.000069
      8          6           0        1.715507   -0.219045    0.000010
      9          6           0        0.399074    1.814549   -0.000077
     10          7           0        0.551846    2.962361   -0.000176
     11          7           0       -2.059892    0.141614    0.000026
     12          8           0       -2.158272    1.358780    0.000457
     13          8           0       -3.002310   -0.638883   -0.000380
     14          6           0        2.962655    0.625078   -0.000028
     15          1           0        2.997954    1.279521   -0.876736
     16          1           0        3.855187   -0.003588    0.000064
     17          1           0        2.997889    1.279699    0.876543
     18          1           0       -1.511651   -2.406692    0.000030
 ---------------------------------------------------------------------

 SCF Done:  E(RHF) =  -565.164054296     A.U. after    7 cycles

 The electronic state is 1-A.
 Alpha  occ. eigenvalues --  -20.61527 -20.61179 -15.86812 -15.58170 -11.34193
 Alpha  occ. eigenvalues --  -11.32371 -11.30255 -11.28852 -11.28850 -11.28723
 Alpha  occ. eigenvalues --  -11.28481 -11.25413  -1.62094  -1.41476  -1.24295
 Alpha  occ. eigenvalues --   -1.21356  -1.12305  -1.09728  -1.00202  -0.97326
 Alpha  occ. eigenvalues --   -0.89432  -0.84068  -0.80255  -0.75999  -0.74269
 Alpha  occ. eigenvalues --   -0.73579  -0.69803  -0.68375  -0.62865  -0.61568
 Alpha  occ. eigenvalues --   -0.59124  -0.57159  -0.56558  -0.55297  -0.54824
 Alpha  occ. eigenvalues --   -0.52337  -0.50896  -0.49859  -0.46582  -0.46352
 Alpha  occ. eigenvalues --   -0.39391  -0.37315
 Alpha virt. eigenvalues --    0.01185   0.02156   0.03187   0.04388   0.04597
 Alpha virt. eigenvalues --    0.05552   0.05558   0.05818   0.06515   0.06872
 Alpha virt. eigenvalues --    0.07051   0.07736   0.08101   0.09094   0.09294

 Mulliken charges:
               1
     1  C    0.429142
     2  C    0.034276
     3  C   -0.182895
     4  C   -0.175169
     5  H    0.228530
     6  C   -0.197686
     7  H    0.214454
     8  C    0.114499
     9  C    0.097155
    10  N   -0.418523
    11  N    0.504564
    12  O   -0.397097
    13  O   -0.437958
    14  C   -0.689735
    15  H    0.212019
    16  H    0.183063
    17  H    0.212024
    18  H    0.269338
 Sum of Mulliken charges =  -0.00000

 Dipole moment (field-independent basis, Debye):
    X=              4.7887    Y=             -5.9271    Z=              0.0003  Tot=              7.6198
 Quadrupole moment (field-independent basis, Debye-Ang):
   XX=            -71.7324   YY=            -75.9096   ZZ=            -69.4992
   XY=             -1.1191   XZ=             -0.0004   YZ=             -0.0009

 Normal termination of Gaussian 09 at Thu Aug 26 10:51:43 2021.
