 Gaussian 09, Revision E.01,
 Gaussian 09:  ES64L-G09RevE.01 30-Nov-2015

 ----------------
 #P G4 OPT=calcfc
 ----------------

 --------
 ZZZFYW01
 --------
 Symbolic Z-matrix:
 Charge =  0 Multiplicity = 1

 SCF Done:  E(RB3LYP) =  -641.210496032     A.U. after   15 cycles
 SCF Done:  E(RB3LYP) =  -641.266331188     A.U. after   13 cycles
 SCF Done:  E(RB3LYP) =  -641.276111445     A.U. after   14 cycles
 SCF Done:  E(RB3LYP) =  -641.276974358     A.U. after   13 cycles
 SCF Done:  E(RB3LYP) =  -641.277014118     A.U. after   12 cycles
 SCF Done:  E(RB3LYP) =  -641.277025967     A.U. after   10 cycles
 SCF Done:  E(RB3LYP) =  -641.277026565     A.U. after    8 cycles
 Optimization completed.
    -- Stationary point found.
 Normal termination of Gaussian 09 at Thu Aug 26 11:18:11 2021.

 ----------------------------------------------------------
 #P Geom=AllCheck Guess=TCheck SCRF=Check B3LYP/GTBas3 Freq
 ----------------------------------------------------------

 Structure from the checkpoint file:  "/public/home/users/caep010/.cache/gau_scr/Gau-54312.chk"
 --------
 ZZZFYW01
 --------
 Charge =  0 Multiplicity = 1

 SCF Done:  E(RB3LYP) =  -641.277026565     A.U. after    1 cycles

  Exact polarizability: 115.398   0.000 105.920   0.003   7.145  49.199
 Approx polarizability: 193.969   0.016 198.090   0.015  33.741 100.047

                      1                      2                      3
                      A                      A                      A
 Frequencies --     34.6156                98.5634               116.8040
 Red. masses --     15.1108                15.1233                 4.9951
 Frc consts  --      0.0107                 0.0866                 0.0402
 IR Inten    --      0.2136                 0.0548                 0.1471

                      4                      5                      6
                      A                      A                      A
 Frequencies --    177.3800               195.4516               272.8275
 Red. masses --      7.0148                15.0652                 6.3063
 Frc consts  --      0.1300                 0.3391                 0.2766
 IR Inten    --      0.6457                 0.8366                 1.7626

                      7                      8                      9
                      A                      A                      A
 Frequencies --    337.4293               374.8126               419.8434
 Red. masses --     10.7253                 8.9560                 3.6471
 Frc consts  --      0.7195                 0.7413                 0.3788
 IR Inten    --      1.9793                 0.1890                 0.4799

                     10                     11                     12
                      A                      A                      A
 Frequencies --    424.9701               564.0642               595.6852
 Red. masses --      8.5695                 4.9949                 5.0729
 Frc consts  --      0.9118                 0.9363                 1.0606
 IR Inten    --      4.3151                 0.6957                 4.5952

                     13                     14                     15
                      A                      A                      A
 Frequencies --    653.6059               703.9796               714.1268
 Red. masses --      6.4878                 6.7607                 7.1285
 Frc consts  --      1.6330                 1.9741                 2.1419
 IR Inten    --      4.6570                 1.0437                17.6737

                     16                     17                     18
                      A                      A                      A
 Frequencies --    750.1593               794.5750               812.8051
 Red. masses --      2.9443                 4.2375                 1.8296
 Frc consts  --      0.9762                 1.5763                 0.7122
 IR Inten    --     38.3852                 8.1896                15.2683

                     19                     20                     21
                      A                      A                      A
 Frequencies --    858.8500               874.0784               914.6639
 Red. masses --     11.2535                 9.7730                 1.5411
 Frc consts  --      4.8907                 4.3993                 0.7596
 IR Inten    --     44.4784                23.4853                 1.5760

                     22                     23                     24
                      A                      A                      A
 Frequencies --    974.6112               998.9101              1059.2622
 Red. masses --      1.3727                 1.3012                 2.2931
 Frc consts  --      0.7682                 0.7650                 1.5160
 IR Inten    --      1.5347                 1.4059                 0.5219

                     25                     26                     27
                      A                      A                      A
 Frequencies --   1087.5093              1165.3258              1167.1185
 Red. masses --      4.8667                 1.6493                 2.3323
 Frc consts  --      3.3912                 1.3196                 1.8719
 IR Inten    --      0.2843                 3.0827                14.1754

                     28                     29                     30
                      A                      A                      A
 Frequencies --   1190.5059              1288.7590              1357.4992
 Red. masses --      1.2444                 1.5040                 8.5242
 Frc consts  --      1.0391                 1.4717                 9.2551
 IR Inten    --      1.5039                 0.5712                 6.6506

                     31                     32                     33
                      A                      A                      A
 Frequencies --   1397.2208              1412.0538              1476.7747
 Red. masses --     14.5690                14.7090                 2.2586
 Frc consts  --     16.7576                17.2796                 2.9022
 IR Inten    --    128.3745               232.5851                 2.2174

                     34                     35                     36
                      A                      A                      A
 Frequencies --   1500.9041              1623.1981              1626.4256
 Red. masses --      2.5069                 6.8996                 7.7625
 Frc consts  --      3.3273                10.7106                12.0983
 IR Inten    --      6.6004               103.5382                21.2363

                     37                     38                     39
                      A                      A                      A
 Frequencies --   1650.0843              1663.6559              3194.3258
 Red. masses --     11.8819                12.4472                 1.0866
 Frc consts  --     19.0611                20.2977                 6.5326
 IR Inten    --    330.3983                32.4601                 1.7896

                     40                     41                     42
                      A                      A                      A
 Frequencies --   3208.3651              3226.7982              3228.9227
 Red. masses --      1.0927                 1.0925                 1.0944
 Frc consts  --      6.6272                 6.7019                 6.7228
 IR Inten    --      4.5090                 1.6811                 0.9047

 - Thermochemistry -
 -------------------
 Temperature   298.150 Kelvin.  Pressure   1.00000 Atm.
 Atom     1 has atomic number  6 and mass  12.00000

 Molecular mass:   168.01711 amu.
 Principal axes and moments of inertia in atomic units:
                           1         2         3
     Eigenvalues --  1507.487341627.333232887.60637
           X            1.00000  -0.00016  -0.00000
           Y            0.00016   1.00000  -0.00045
           Z            0.00000   0.00045   1.00000
 This molecule is an asymmetric top.
 Rotational symmetry number  1.
 Warning -- assumption of classical behavior for rotation
           may cause significant error
 Rotational temperatures (Kelvin)      0.05746     0.05322     0.03000
 Rotational constants (GHZ):           1.19718     1.10902     0.62500
 Zero-point vibrational energy     276262.7 (Joules/Mol)
                                   66.02838 (Kcal/Mol)
 Warning -- explicit consideration of  12 degrees of freedom as
           vibrations may cause significant error
 Vibrational temperatures:     49.80   141.81   168.05   255.21   281.21
          (Kelvin)            392.54   485.48   539.27   604.06   611.44
                              811.56   857.06   940.39  1012.87  1027.47
                             1079.31  1143.21  1169.44  1235.69  1257.60
                             1316.00  1402.25  1437.21  1524.04  1564.68
                             1676.64  1679.22  1712.87  1854.23  1953.14
                             2010.29  2031.63  2124.75  2159.46  2335.42
                             2340.06  2374.10  2393.63  4595.92  4616.12
                             4642.64  4645.69

 Zero-point correction=                           0.105223 (Hartree/Particle)
 Thermal correction to Energy=                    0.114632
 Thermal correction to Enthalpy=                  0.115576
 Thermal correction to Gibbs Free Energy=         0.069204
 Sum of electronic and zero-point Energies=           -641.171804
 Sum of electronic and thermal Energies=              -641.162395
 Sum of electronic and thermal Enthalpies=            -641.161451
 Sum of electronic and thermal Free Energies=         -641.207823

                     E (Thermal)             CV                S
                      KCal/Mol        Cal/Mol-Kelvin    Cal/Mol-Kelvin
 Total                   71.933             34.414             97.599
 Electronic               0.000              0.000              0.000
 Translational            0.889              2.981             41.265
 Rotational               0.889              2.981             30.339
 Vibrational             70.155             28.453             25.995
 Vibration     1          0.594              1.983              5.546
 Vibration     2          0.604              1.950              3.483
 Vibration     3          0.608              1.935              3.153
 Vibration     4          0.628              1.870              2.356
 Vibration     5          0.636              1.846              2.176
 Vibration     6          0.676              1.723              1.578
 Vibration     7          0.718              1.601              1.224
 Vibration     8          0.746              1.524              1.060
 Vibration     9          0.783              1.427              0.893
 Vibration    10          0.787              1.416              0.875
 Vibration    11          0.920              1.109              0.516
 Vibration    12          0.953              1.041              0.457

 Optimization completed.
    -- Stationary point found.
 Normal termination of Gaussian 09 at Thu Aug 26 11:20:20 2021.

 -----------------------------------------------------------------
 #P Geom=AllCheck Guess=TCheck SCRF=Check CCSD(T,E4T,FrzG4)/GTBas1
 -----------------------------------------------------------------

 Structure from the checkpoint file:  "/public/home/users/caep010/.cache/gau_scr/Gau-54312.chk"
 --------
 ZZZFYW01
 --------
 Charge =  0 Multiplicity = 1

 SCF Done:  E(RHF) =  -637.613003751     A.U. after   15 cycles
 E2 =    -0.1847060703D+01 EUMP2 =    -0.63946006445418D+03
 CCSD(T)
 CCSD(T)= -0.63954874915D+03
 P4SDQ=-639.4693448\CCSD=-639.4617096\CCSD(T)=-639.5487491\RMSD=8.586e-
 Normal termination of Gaussian 09 at Thu Aug 26 12:14:03 2021.

 ---------------------------------------------------------
 #P Geom=AllCheck Guess=TCheck SCRF=Check MP4=FrzG4/GTBas2
 ---------------------------------------------------------

 Structure from the checkpoint file:  "/public/home/users/caep010/.cache/gau_scr/Gau-54312.chk"
 --------
 ZZZFYW01
 --------
 Charge =  0 Multiplicity = 1

 SCF Done:  E(RHF) =  -637.631847593     A.U. after   16 cycles
 E2 =    -0.1872967807D+01 EUMP2 =    -0.63950481540082D+03
 Normal termination of Gaussian 09 at Thu Aug 26 12:31:37 2021.

 ---------------------------------------------------------
 #P Geom=AllCheck Guess=TCheck SCRF=Check MP4=FrzG4/GTBas3
 ---------------------------------------------------------

 Structure from the checkpoint file:  "/public/home/users/caep010/.cache/gau_scr/Gau-54312.chk"
 --------
 ZZZFYW01
 --------
 Charge =  0 Multiplicity = 1

 SCF Done:  E(RHF) =  -637.676855278     A.U. after   12 cycles
 E2 =    -0.2196085999D+01 EUMP2 =    -0.63987294127656D+03
 Normal termination of Gaussian 09 at Thu Aug 26 14:47:45 2021.

 -----------------------------------------------------------
 #P Geom=AllCheck Guess=TCheck SCRF=Check MP2=Full/GTLargeXP
 -----------------------------------------------------------

 Structure from the checkpoint file:  "/public/home/users/caep010/.cache/gau_scr/Gau-54312.chk"
 --------
 ZZZFYW01
 --------
 Charge =  0 Multiplicity = 1

 SCF Done:  E(RHF) =  -637.836836248     A.U. after   16 cycles
 E2 =    -0.2863194032D+01 EUMP2 =    -0.64070003028085D+03
 Normal termination of Gaussian 09 at Thu Aug 26 15:03:29 2021.
 SCF Done:  E(RHF) =  -637.888883584     A.U. after   10 cycles
 Normal termination of Gaussian 09 at Thu Aug 26 15:08:36 2021.

                         Standard orientation:
 ---------------------------------------------------------------------
 Center     Atomic      Atomic             Coordinates (Angstroms)
 Number     Number       Type             X           Y           Z
 ---------------------------------------------------------------------
      1          6           0       -0.224740   -0.696750    0.012684
      2          7           0        1.016335   -1.482854    0.151164
      3          6           0       -1.423570   -1.394688    0.010346
      4          8           0        1.072295   -2.533428   -0.468857
      5          6           0       -0.224164    0.696985   -0.012696
      6          6           0       -1.422436    1.395887   -0.010372
      7          6           0       -2.626799    0.696964   -0.002055
      8          1           0       -3.562248    1.244443   -0.006687
      9          6           0       -2.627364   -0.694785    0.002050
     10          8           0        1.861565   -1.050842    0.917009
     11          7           0        1.017604    1.482017   -0.151159
     12          8           0        1.074920    2.532078    0.469588
     13          8           0        1.862013    1.049715   -0.917745
     14          1           0       -1.390851    2.477558   -0.029832
     15          1           0       -3.563454   -1.241569    0.006841
     16          1           0       -1.392921   -2.476440    0.029931
 ---------------------------------------------------------------------

 SCF Done:  E(RHF) =  -637.898833475     A.U. after    8 cycles

 The electronic state is 1-A.
 Alpha  occ. eigenvalues --  -20.61978 -20.61978 -20.61899 -20.61899 -15.87307
 Alpha  occ. eigenvalues --  -15.87307 -11.35370 -11.35249 -11.30233 -11.30233
 Alpha  occ. eigenvalues --  -11.29785 -11.29662  -1.62960  -1.62312  -1.42341
 Alpha  occ. eigenvalues --   -1.41935  -1.24183  -1.12549  -1.11856  -1.01311
 Alpha  occ. eigenvalues --   -0.96175  -0.88503  -0.85401  -0.81219  -0.78159
 Alpha  occ. eigenvalues --   -0.75595  -0.74552  -0.74475  -0.72873  -0.70950
 Alpha  occ. eigenvalues --   -0.67726  -0.66916  -0.60122  -0.57710  -0.57522
 Alpha  occ. eigenvalues --   -0.52211  -0.51648  -0.51553  -0.50900  -0.47839
 Alpha  occ. eigenvalues --   -0.45926  -0.40627  -0.40248
 Alpha virt. eigenvalues --    0.01366   0.02002   0.03215   0.04295   0.04619
 Alpha virt. eigenvalues --    0.05172   0.05943   0.06842   0.07377   0.07745
 Alpha virt. eigenvalues --    0.07911   0.08360   0.08620   0.08928   0.09458

 Mulliken charges:
               1
     1  C    0.183584
     2  N    0.496388
     3  C   -0.186259
     4  O   -0.417699
     5  C    0.183615
     6  C   -0.186274
     7  C   -0.165779
     8  H    0.227778
     9  C   -0.165843
    10  O   -0.392571
    11  N    0.496405
    12  O   -0.417689
    13  O   -0.392583
    14  H    0.254558
    15  H    0.227775
    16  H    0.254593
 Sum of Mulliken charges =  -0.00000

 Dipole moment (field-independent basis, Debye):
    X=             -7.6613    Y=              0.0034    Z=              0.0002  Tot=              7.6613
 Quadrupole moment (field-independent basis, Debye-Ang):
   XX=            -64.6785   YY=            -71.8846   ZZ=            -71.5149
   XY=             -0.0045   XZ=             -0.0016   YZ=             -2.4772

 Normal termination of Gaussian 09 at Thu Aug 26 15:44:19 2021.
