 Gaussian 09, Revision E.01,
 Gaussian 09:  ES64L-G09RevE.01 30-Nov-2015

 ----------------
 #P G4 OPT=calcfc
 ----------------

 ------
 ZUGPOJ
 ------
 Symbolic Z-matrix:
 Charge =  0 Multiplicity = 1

 SCF Done:  E(RB3LYP) =  -733.432954536     A.U. after   16 cycles
 SCF Done:  E(RB3LYP) =  -733.498652352     A.U. after   14 cycles
 SCF Done:  E(RB3LYP) =  -733.512319610     A.U. after   16 cycles
 SCF Done:  E(RB3LYP) =  -733.513522269     A.U. after   15 cycles
 SCF Done:  E(RB3LYP) =  -733.513607140     A.U. after   13 cycles
 SCF Done:  E(RB3LYP) =  -733.513613168     A.U. after    8 cycles
 SCF Done:  E(RB3LYP) =  -733.513615763     A.U. after    8 cycles
 Optimization completed.
    -- Stationary point found.
 Normal termination of Gaussian 09 at Wed Aug 25 07:37:35 2021.

 ----------------------------------------------------------
 #P Geom=AllCheck Guess=TCheck SCRF=Check B3LYP/GTBas3 Freq
 ----------------------------------------------------------

 Structure from the checkpoint file:  "/public/home/users/caep010/.cache/gau_scr/Gau-50934.chk"
 ------
 ZUGPOJ
 ------
 Charge =  0 Multiplicity = 1

 SCF Done:  E(RB3LYP) =  -733.513615763     A.U. after    1 cycles

  Exact polarizability: 132.178   0.000 139.063   3.747  -0.000  50.648
 Approx polarizability: 216.891   0.000 283.864  15.858  -0.000  95.836

                      1                      2                      3
                      A                      A                      A
 Frequencies --     32.9444                51.8051                60.7242
 Red. masses --     14.4892                15.8891                11.6168
 Frc consts  --      0.0093                 0.0251                 0.0252
 IR Inten    --      0.9312                 0.0568                 1.2741

                      4                      5                      6
                      A                      A                      A
 Frequencies --    176.2645               183.9294               184.0764
 Red. masses --      9.3943                10.9184                 6.3482
 Frc consts  --      0.1720                 0.2176                 0.1267
 IR Inten    --      1.8155                 3.2072                 1.3570

                      7                      8                      9
                      A                      A                      A
 Frequencies --    193.5891               284.9400               317.6166
 Red. masses --      8.9189                 9.3246                13.7346
 Frc consts  --      0.1969                 0.4461                 0.8163
 IR Inten    --      3.1126                 3.2754                 0.3088

                     10                     11                     12
                      A                      A                      A
 Frequencies --    391.3865               407.2356               407.9574
 Red. masses --      6.8793                 7.4380                 8.1664
 Frc consts  --      0.6209                 0.7268                 0.8008
 IR Inten    --      1.0062                 0.0220                 4.0706

                     13                     14                     15
                      A                      A                      A
 Frequencies --    489.4507               504.4197               581.2263
 Red. masses --     10.2785                 8.5998                 4.2116
 Frc consts  --      1.4508                 1.2892                 0.8383
 IR Inten    --      5.0407                 2.8444                 3.8068

                     16                     17                     18
                      A                      A                      A
 Frequencies --    596.1442               626.1256               720.2016
 Red. masses --      8.8323                 6.9927                 8.7010
 Frc consts  --      1.8494                 1.6152                 2.6591
 IR Inten    --      2.5994                 3.8058                26.4239

                     19                     20                     21
                      A                      A                      A
 Frequencies --    738.6937               776.1012               780.3907
 Red. masses --      9.1808                 6.8740                 1.9132
 Frc consts  --      2.9516                 2.4395                 0.6865
 IR Inten    --     18.9069                 1.2474                40.3750

                     22                     23                     24
                      A                      A                      A
 Frequencies --    789.7861               852.6001               865.2251
 Red. masses --      7.6105                12.1584                 2.6227
 Frc consts  --      2.7970                 5.2074                 1.1568
 IR Inten    --      0.0302                11.3951                 6.1677

                     25                     26                     27
                      A                      A                      A
 Frequencies --    922.9179               970.8299              1003.1235
 Red. masses --     10.8554                 1.4095                 1.3345
 Frc consts  --      5.4478                 0.7827                 0.7912
 IR Inten    --     57.9306                 0.8616                 1.4147

                     28                     29                     30
                      A                      A                      A
 Frequencies --   1099.8603              1154.6491              1186.1680
 Red. masses --      2.0150                10.5027                 1.1724
 Frc consts  --      1.4361                 8.2499                 0.9719
 IR Inten    --      8.3014                 2.4160                 0.1011

                     31                     32                     33
                      A                      A                      A
 Frequencies --   1219.4111              1223.0153              1345.7766
 Red. masses --      3.0288                 1.9681                 8.1863
 Frc consts  --      2.6535                 1.7344                 8.7354
 IR Inten    --      3.3698                 9.4995                 1.1260

                     34                     35                     36
                      A                      A                      A
 Frequencies --   1388.7063              1396.3916              1470.0878
 Red. masses --     14.4770                14.5654                 2.3935
 Frc consts  --     16.4493                16.7335                 3.0477
 IR Inten    --    360.1973                23.4752                 5.0713

                     37                     38                     39
                      A                      A                      A
 Frequencies --   1479.2413              1596.9887              1626.3240
 Red. masses --      3.5667                 6.6672                 8.6712
 Frc consts  --      4.5983                10.0184                13.5128
 IR Inten    --      7.5651                 6.0960               106.8421

                     40                     41                     42
                      A                      A                      A
 Frequencies --   1654.7780              1669.7410              2354.2613
 Red. masses --     13.3383                11.4581                12.6785
 Frc consts  --     21.5194                18.8218                41.4025
 IR Inten    --    180.6462               139.1242                 0.8418

                     43                     44                     45
                      A                      A                      A
 Frequencies --   3210.6567              3235.6432              3238.1738
 Red. masses --      1.0892                 1.0910                 1.0952
 Frc consts  --      6.6154                 6.7295                 6.7661
 IR Inten    --      1.4578                 8.8549                 0.5900

 - Thermochemistry -
 -------------------
 Temperature   298.150 Kelvin.  Pressure   1.00000 Atm.
 Atom     1 has atomic number  6 and mass  12.00000

 Molecular mass:   193.01236 amu.
 Principal axes and moments of inertia in atomic units:
                           1         2         3
     Eigenvalues --  1497.573653091.941384459.46059
           X            1.00000   0.00000   0.00025
           Y           -0.00000   1.00000   0.00000
           Z           -0.00025  -0.00000   1.00000
 This molecule is an asymmetric top.
 Rotational symmetry number  1.
 Warning -- assumption of classical behavior for rotation
           may cause significant error
 Rotational temperatures (Kelvin)      0.05784     0.02801     0.01942
 Rotational constants (GHZ):           1.20511     0.58369     0.40470
 Zero-point vibrational energy     271908.7 (Joules/Mol)
                                   64.98773 (Kcal/Mol)
 Warning -- explicit consideration of  16 degrees of freedom as
           vibrations may cause significant error
 Vibrational temperatures:     47.40    74.54    87.37   253.61   264.63
          (Kelvin)            264.84   278.53   409.96   456.98   563.12
                              585.92   586.96   704.21   725.75   836.25
                              857.72   900.85  1036.21  1062.81  1116.64
                             1122.81  1136.32  1226.70  1244.86  1327.87
                             1396.81  1443.27  1582.45  1661.28  1706.63
                             1754.46  1759.64  1936.27  1998.04  2009.09
                             2115.13  2128.30  2297.71  2339.91  2380.85
                             2402.38  3387.25  4619.41  4655.36  4659.00

 Zero-point correction=                           0.103565 (Hartree/Particle)
 Thermal correction to Energy=                    0.114793
 Thermal correction to Enthalpy=                  0.115737
 Thermal correction to Gibbs Free Energy=         0.064603
 Sum of electronic and zero-point Energies=           -733.410051
 Sum of electronic and thermal Energies=              -733.398823
 Sum of electronic and thermal Enthalpies=            -733.397878
 Sum of electronic and thermal Free Energies=         -733.449013

                     E (Thermal)             CV                S
                      KCal/Mol        Cal/Mol-Kelvin    Cal/Mol-Kelvin
 Total                   72.034             40.449            107.622
 Electronic               0.000              0.000              0.000
 Translational            0.889              2.981             41.678
 Rotational               0.889              2.981             31.402
 Vibrational             70.256             34.487             34.542
 Vibration     1          0.594              1.983              5.644
 Vibration     2          0.596              1.977              4.747
 Vibration     3          0.597              1.973              4.434
 Vibration     4          0.628              1.872              2.368
 Vibration     5          0.631              1.862              2.288
 Vibration     6          0.631              1.862              2.287
 Vibration     7          0.635              1.849              2.193
 Vibration     8          0.683              1.702              1.504
 Vibration     9          0.704              1.640              1.322
 Vibration    10          0.759              1.489              0.995
 Vibration    11          0.772              1.455              0.936
 Vibration    12          0.773              1.453              0.934
 Vibration    13          0.845              1.273              0.685
 Vibration    14          0.860              1.240              0.647
 Vibration    15          0.938              1.072              0.483
 Vibration    16          0.954              1.040              0.456

 Optimization completed.
    -- Stationary point found.
 Normal termination of Gaussian 09 at Wed Aug 25 07:40:43 2021.

 -----------------------------------------------------------------
 #P Geom=AllCheck Guess=TCheck SCRF=Check CCSD(T,E4T,FrzG4)/GTBas1
 -----------------------------------------------------------------

 Structure from the checkpoint file:  "/public/home/users/caep010/.cache/gau_scr/Gau-50934.chk"
 ------
 ZUGPOJ
 ------
 Charge =  0 Multiplicity = 1

 SCF Done:  E(RHF) =  -729.330491050     A.U. after   16 cycles
 E2 =    -0.2131704999D+01 EUMP2 =    -0.73146219604914D+03
 CCSD(T)
 CCSD(T)= -0.73156004815D+03
 CCSD(T)=-731.5600482\RMSD=8.988e-09\PG=C01 [X(C7H3N3O4)]\\@
 Normal termination of Gaussian 09 at Wed Aug 25 09:29:30 2021.

 ---------------------------------------------------------
 #P Geom=AllCheck Guess=TCheck SCRF=Check MP4=FrzG4/GTBas2
 ---------------------------------------------------------

 Structure from the checkpoint file:  "/public/home/users/caep010/.cache/gau_scr/Gau-50934.chk"
 ------
 ZUGPOJ
 ------
 Charge =  0 Multiplicity = 1

 SCF Done:  E(RHF) =  -729.349728381     A.U. after   18 cycles
 E2 =    -0.2159488287D+01 EUMP2 =    -0.73150921666817D+03
 Normal termination of Gaussian 09 at Wed Aug 25 10:10:33 2021.

 ---------------------------------------------------------
 #P Geom=AllCheck Guess=TCheck SCRF=Check MP4=FrzG4/GTBas3
 ---------------------------------------------------------

 Structure from the checkpoint file:  "/public/home/users/caep010/.cache/gau_scr/Gau-50934.chk"
 ------
 ZUGPOJ
 ------
 Charge =  0 Multiplicity = 1

 SCF Done:  E(RHF) =  -729.401028435     A.U. after   13 cycles
 E2 =    -0.2516679728D+01 EUMP2 =    -0.73191770816248D+03
 Normal termination of Gaussian 09 at Wed Aug 25 14:51:58 2021.

 -----------------------------------------------------------
 #P Geom=AllCheck Guess=TCheck SCRF=Check MP2=Full/GTLargeXP
 -----------------------------------------------------------

 Structure from the checkpoint file:  "/public/home/users/caep010/.cache/gau_scr/Gau-50934.chk"
 ------
 ZUGPOJ
 ------
 Charge =  0 Multiplicity = 1

 SCF Done:  E(RHF) =  -729.580732941     A.U. after   15 cycles
 E2 =    -0.3286252689D+01 EUMP2 =    -0.73286698562974D+03
 Normal termination of Gaussian 09 at Wed Aug 25 15:05:08 2021.
 SCF Done:  E(RHF) =  -729.638786969     A.U. after   11 cycles
 Normal termination of Gaussian 09 at Wed Aug 25 15:13:11 2021.

                         Standard orientation:
 ---------------------------------------------------------------------
 Center     Atomic      Atomic             Coordinates (Angstroms)
 Number     Number       Type             X           Y           Z
 ---------------------------------------------------------------------
      1          6           0        0.000000    0.310489    0.000000
      2          6           0       -0.000001   -2.525093   -0.000000
      3          6           0        0.000001    1.741568    0.000001
      4          7           0        0.000002    2.897624    0.000001
      5          1           0       -0.000001   -3.608278   -0.000000
      6          6           0        1.190368   -0.439099   -0.002250
      7          6           0       -1.190368   -0.439098    0.002249
      8          7           0        2.513163    0.226589   -0.042931
      9          7           0       -2.513163    0.226591    0.042931
     10          8           0        2.582491    1.310746   -0.593398
     11          8           0       -2.582490    1.310750    0.593393
     12          8           0        3.444080   -0.383194    0.463699
     13          8           0       -3.444081   -0.383194   -0.463695
     14          6           0        1.199954   -1.826385    0.021130
     15          6           0       -1.199955   -1.826384   -0.021131
     16          1           0        2.155950   -2.332096    0.047592
     17          1           0       -2.155951   -2.332095   -0.047593
 ---------------------------------------------------------------------

 SCF Done:  E(RHF) =  -729.649759462     A.U. after    9 cycles

 The electronic state is 1-A.
 Alpha  occ. eigenvalues --  -20.63570 -20.63570 -20.63052 -20.63052 -15.88748
 Alpha  occ. eigenvalues --  -15.88748 -15.60168 -11.37316 -11.37184 -11.37133
 Alpha  occ. eigenvalues --  -11.32568 -11.32559 -11.31655 -11.30466  -1.64131
 Alpha  occ. eigenvalues --   -1.64107  -1.43596  -1.43579  -1.27388  -1.23820
 Alpha  occ. eigenvalues --   -1.16286  -1.13325  -1.03525  -1.00155  -0.92248
 Alpha  occ. eigenvalues --   -0.86614  -0.84215  -0.79791  -0.78795  -0.76782
 Alpha  occ. eigenvalues --   -0.75947  -0.75767  -0.74645  -0.71643  -0.70917
 Alpha  occ. eigenvalues --   -0.62206  -0.62192  -0.60862  -0.58318  -0.54471
 Alpha  occ. eigenvalues --   -0.53736  -0.53203  -0.52486  -0.51674  -0.49145
 Alpha  occ. eigenvalues --   -0.48416  -0.46784  -0.43089  -0.41196
 Alpha virt. eigenvalues --   -0.00516   0.00046   0.01657   0.03408   0.04020
 Alpha virt. eigenvalues --    0.04666   0.05759   0.05762   0.06057   0.06130
 Alpha virt. eigenvalues --    0.07173   0.07596   0.08361   0.08424   0.08731

 Mulliken charges:
               1
     1  C    0.396634
     2  C   -0.139747
     3  C    0.082768
     4  N   -0.364033
     5  H    0.242525
     6  C    0.086195
     7  C    0.086194
     8  N    0.480028
     9  N    0.480028
    10  O   -0.372788
    11  O   -0.372788
    12  O   -0.416889
    13  O   -0.416889
    14  C   -0.158270
    15  C   -0.158270
    16  H    0.272650
    17  H    0.272650
 Sum of Mulliken charges =  -0.00000

 Dipole moment (field-independent basis, Debye):
    X=             -0.0000    Y=             -7.9090    Z=             -0.0000  Tot=              7.9090
 Quadrupole moment (field-independent basis, Debye-Ang):
   XX=            -99.2529   YY=            -79.6684   ZZ=            -78.8770
   XY=             -0.0000   XZ=             -1.2921   YZ=              0.0000

 Normal termination of Gaussian 09 at Wed Aug 25 16:09:13 2021.
