 Gaussian 09, Revision E.01,
 Gaussian 09:  ES64L-G09RevE.01 30-Nov-2015

 ----------------
 #P G4 OPT=calcfc
 ----------------

 ------
 ZERJIR
 ------
 Symbolic Z-matrix:
 Charge =  0 Multiplicity = 1

 SCF Done:  E(RB3LYP) =  -640.766178285     A.U. after   15 cycles
 SCF Done:  E(RB3LYP) =  -640.886428070     A.U. after   13 cycles
 SCF Done:  E(RB3LYP) =  -640.955031337     A.U. after   13 cycles
 SCF Done:  E(RB3LYP) =  -640.956891707     A.U. after   14 cycles
 SCF Done:  E(RB3LYP) =  -640.957046149     A.U. after   14 cycles
 SCF Done:  E(RB3LYP) =  -640.957324316     A.U. after   13 cycles
 SCF Done:  E(RB3LYP) =  -640.957592897     A.U. after   13 cycles
 SCF Done:  E(RB3LYP) =  -640.957462456     A.U. after   12 cycles
 SCF Done:  E(RB3LYP) =  -640.957689120     A.U. after   12 cycles
 SCF Done:  E(RB3LYP) =  -640.957708460     A.U. after   10 cycles
 SCF Done:  E(RB3LYP) =  -640.957712288     A.U. after    9 cycles
 SCF Done:  E(RB3LYP) =  -640.957712673     A.U. after    8 cycles
 Optimization completed.
    -- Stationary point found.
 Normal termination of Gaussian 09 at Fri Aug 27 10:18:18 2021.

 ----------------------------------------------------------
 #P Geom=AllCheck Guess=TCheck SCRF=Check B3LYP/GTBas3 Freq
 ----------------------------------------------------------

 Structure from the checkpoint file:  "/public/home/users/caep010/.cache/gau_scr/Gau-163794.chk"
 ------
 ZERJIR
 ------
 Charge =  0 Multiplicity = 1

 SCF Done:  E(RB3LYP) =  -640.957712673     A.U. after    1 cycles

  Exact polarizability: 185.757  -0.114 109.113  -0.494   8.049  58.785
 Approx polarizability: 279.869  -2.516 195.055  -1.137  16.578  98.101

                      1                      2                      3
                      A                      A                      A
 Frequencies --     43.0782                44.8367                82.6896
 Red. masses --      7.2382                 5.2089                 6.9796
 Frc consts  --      0.0079                 0.0062                 0.0281
 IR Inten    --      1.0012                 2.2636                 1.4859

                      4                      5                      6
                      A                      A                      A
 Frequencies --    117.9521               191.0100               212.2008
 Red. masses --      5.6989                 7.9241                 6.7807
 Frc consts  --      0.0467                 0.1703                 0.1799
 IR Inten    --      0.9684                 1.1759                 4.8860

                      7                      8                      9
                      A                      A                      A
 Frequencies --    280.4119               366.9121               381.2283
 Red. masses --      5.0711                 4.1003                 6.0577
 Frc consts  --      0.2349                 0.3252                 0.5187
 IR Inten    --      3.9536                 1.0481                 5.2644

                     10                     11                     12
                      A                      A                      A
 Frequencies --    412.5359               442.5526               459.1514
 Red. masses --      2.3569                 1.5431                 3.3318
 Frc consts  --      0.2363                 0.1781                 0.4138
 IR Inten    --     35.0711               121.2735                 3.5177

                     13                     14                     15
                      A                      A                      A
 Frequencies --    515.1978               532.7215               586.9109
 Red. masses --      2.9047                 1.2486                 6.9696
 Frc consts  --      0.4542                 0.2088                 1.4145
 IR Inten    --     21.9390                62.4420                15.1763

                     16                     17                     18
                      A                      A                      A
 Frequencies --    627.2935               693.3435               713.4818
 Red. masses --      6.2886                 3.1766                 3.2109
 Frc consts  --      1.4580                 0.8997                 0.9631
 IR Inten    --      0.7477                 6.7153                10.8368

                     19                     20                     21
                      A                      A                      A
 Frequencies --    720.9679               766.7798               779.0406
 Red. masses --      2.1219                 3.6941                 1.7901
 Frc consts  --      0.6498                 1.2797                 0.6401
 IR Inten    --      9.9393                37.5389                27.9669

                     22                     23                     24
                      A                      A                      A
 Frequencies --    785.5663               803.3725               861.1529
 Red. masses --      2.1080                11.4986                 1.3868
 Frc consts  --      0.7665                 4.3725                 0.6059
 IR Inten    --     59.3591                16.7079                 0.5328

                     25                     26                     27
                      A                      A                      A
 Frequencies --    875.7613               933.3102               941.3909
 Red. masses --      3.2385                 1.4725                 6.3690
 Frc consts  --      1.4634                 0.7557                 3.3255
 IR Inten    --      8.1787                 4.6079                43.7932

                     28                     29                     30
                      A                      A                      A
 Frequencies --    966.5253               994.0084              1013.1717
 Red. masses --      1.3277                 1.2476                 6.0335
 Frc consts  --      0.7308                 0.7263                 3.6491
 IR Inten    --      0.4531                 0.5930                 0.5817

                     31                     32                     33
                      A                      A                      A
 Frequencies --   1047.1624              1061.7562              1109.0532
 Red. masses --      2.6807                 2.2240                 1.5639
 Frc consts  --      1.7319                 1.4772                 1.1333
 IR Inten    --      0.2835                10.0322                 2.9765

                     34                     35                     36
                      A                      A                      A
 Frequencies --   1169.2753              1184.3816              1200.9294
 Red. masses --      2.0597                 1.0880                 1.3447
 Frc consts  --      1.6592                 0.8993                 1.1426
 IR Inten    --     26.2379                 1.0920                94.1124

                     37                     38                     39
                      A                      A                      A
 Frequencies --   1209.4253              1310.3077              1330.8055
 Red. masses --      2.0133                 4.9023                 3.0566
 Frc consts  --      1.7351                 4.9591                 3.1895
 IR Inten    --    205.1511               141.6692                21.8030

                     40                     41                     42
                      A                      A                      A
 Frequencies --   1351.0151              1403.5672              1482.9365
 Red. masses --      2.0983                 2.4429                 2.3898
 Frc consts  --      2.2565                 2.8354                 3.0964
 IR Inten    --      2.5616                42.5178                56.6232

                     43                     44                     45
                      A                      A                      A
 Frequencies --   1506.0409              1529.8158              1603.9765
 Red. masses --      3.0820                 2.3259                 5.2759
 Frc consts  --      4.1187                 3.2072                 7.9972
 IR Inten    --    135.8209                52.7552              1038.8162

                     46                     47                     48
                      A                      A                      A
 Frequencies --   1616.6731              1627.8953              1646.2996
 Red. masses --      2.7885                 2.9526                 5.3488
 Frc consts  --      4.2941                 4.6101                 8.5412
 IR Inten    --    189.9308               273.3934                39.7106

                     49                     50                     51
                      A                      A                      A
 Frequencies --   1672.6800              3177.7929              3183.9876
 Red. masses --      2.4252                 1.0844                 1.0876
 Frc consts  --      3.9979                 6.4522                 6.4965
 IR Inten    --    246.2166                 2.8219                 3.0344

                     52                     53                     54
                      A                      A                      A
 Frequencies --   3193.7159              3203.9647              3210.5671
 Red. masses --      1.0923                 1.0951                 1.0957
 Frc consts  --      6.5640                 6.6231                 6.6543
 IR Inten    --     12.5454                13.0361                 3.1468

                     55                     56                     57
                      A                      A                      A
 Frequencies --   3344.8280              3591.6726              3716.1698
 Red. masses --      1.0783                 1.0451                 1.1033
 Frc consts  --      7.1079                 7.9436                 8.9767
 IR Inten    --    355.6804                53.8471                81.3135

 - Thermochemistry -
 -------------------
 Temperature   298.150 Kelvin.  Pressure   1.00000 Atm.
 Atom     1 has atomic number  8 and mass  15.99491

 Molecular mass:   180.06473 amu.
 Principal axes and moments of inertia in atomic units:
                           1         2         3
     Eigenvalues --   822.455094476.606205092.87937
           X            0.99998  -0.00521   0.00195
           Y            0.00518   0.99988   0.01454
           Z           -0.00203  -0.01453   0.99989
 This molecule is an asymmetric top.
 Rotational symmetry number  1.
 Warning -- assumption of classical behavior for rotation
           may cause significant error
 Rotational temperatures (Kelvin)      0.10531     0.01935     0.01701
 Rotational constants (GHZ):           2.19433     0.40315     0.35437
 Zero-point vibrational energy     417683.6 (Joules/Mol)
                                   99.82878 (Kcal/Mol)
 Warning -- explicit consideration of  15 degrees of freedom as
           vibrations may cause significant error
 Vibrational temperatures:     61.98    64.51   118.97   169.71   274.82
          (Kelvin)            305.31   403.45   527.90   548.50   593.55
                              636.73   660.62   741.25   766.47   844.43
                              902.53   997.57  1026.54  1037.31  1103.22
                             1120.86  1130.25  1155.87  1239.01  1260.02
                             1342.82  1354.45  1390.61  1430.15  1457.73
                             1506.63  1527.63  1595.68  1682.32  1704.06
                             1727.87  1740.09  1885.24  1914.73  1943.81
                             2019.42  2133.61  2166.85  2201.06  2307.76
                             2326.03  2342.18  2368.65  2406.61  4572.13
                             4581.04  4595.04  4609.78  4619.28  4812.46
                             5167.61  5346.73

 Zero-point correction=                           0.159087 (Hartree/Particle)
 Thermal correction to Energy=                    0.170077
 Thermal correction to Enthalpy=                  0.171022
 Thermal correction to Gibbs Free Energy=         0.120881
 Sum of electronic and zero-point Energies=           -640.798625
 Sum of electronic and thermal Energies=              -640.787635
 Sum of electronic and thermal Enthalpies=            -640.786691
 Sum of electronic and thermal Free Energies=         -640.836831

                     E (Thermal)             CV                S
                      KCal/Mol        Cal/Mol-Kelvin    Cal/Mol-Kelvin
 Total                  106.725             41.862            105.529
 Electronic               0.000              0.000              0.000
 Translational            0.889              2.981             41.471
 Rotational               0.889              2.981             31.306
 Vibrational            104.948             35.901             32.752
 Vibration     1          0.595              1.980              5.112
 Vibration     2          0.595              1.979              5.033
 Vibration     3          0.600              1.961              3.826
 Vibration     4          0.608              1.934              3.134
 Vibration     5          0.634              1.852              2.218
 Vibration     6          0.643              1.822              2.025
 Vibration     7          0.680              1.710              1.531
 Vibration     8          0.740              1.540              1.093
 Vibration     9          0.751              1.510              1.034
 Vibration    10          0.776              1.443              0.918
 Vibration    11          0.802              1.377              0.819
 Vibration    12          0.817              1.341              0.769
 Vibration    13          0.870              1.216              0.621
 Vibration    14          0.888              1.178              0.581
 Vibration    15          0.944              1.060              0.473

 Normal termination of Gaussian 09 at Fri Aug 27 10:21:13 2021.

 -----------------------------------------------------------------
 #P Geom=AllCheck Guess=TCheck SCRF=Check CCSD(T,E4T,FrzG4)/GTBas1
 -----------------------------------------------------------------

 Structure from the checkpoint file:  "/public/home/users/caep010/.cache/gau_scr/Gau-163794.chk"
 ------
 ZERJIR
 ------
 Charge =  0 Multiplicity = 1

 SCF Done:  E(RHF) =  -637.114978680     A.U. after   14 cycles
 E2 =    -0.1907104381D+01 EUMP2 =    -0.63902208306129D+03
 CCSD(T)
 CCSD(T)= -0.63914355720D+03
 639.0621169\CCSD=-639.0595385\CCSD(T)=-639.1435572\RMSD=9.782e-09\PG=C
 Normal termination of Gaussian 09 at Fri Aug 27 11:47:55 2021.

 ---------------------------------------------------------
 #P Geom=AllCheck Guess=TCheck SCRF=Check MP4=FrzG4/GTBas2
 ---------------------------------------------------------

 Structure from the checkpoint file:  "/public/home/users/caep010/.cache/gau_scr/Gau-163794.chk"
 ------
 ZERJIR
 ------
 Charge =  0 Multiplicity = 1

 SCF Done:  E(RHF) =  -637.134798106     A.U. after   15 cycles
 E2 =    -0.1933069392D+01 EUMP2 =    -0.63906786749847D+03
 Normal termination of Gaussian 09 at Fri Aug 27 12:23:02 2021.

 ---------------------------------------------------------
 #P Geom=AllCheck Guess=TCheck SCRF=Check MP4=FrzG4/GTBas3
 ---------------------------------------------------------

 Structure from the checkpoint file:  "/public/home/users/caep010/.cache/gau_scr/Gau-163794.chk"
 ------
 ZERJIR
 ------
 Charge =  0 Multiplicity = 1

 SCF Done:  E(RHF) =  -637.185695588     A.U. after   13 cycles
 E2 =    -0.2276123482D+01 EUMP2 =    -0.63946181907068D+03
 Normal termination of Gaussian 09 at Fri Aug 27 16:08:18 2021.

 -----------------------------------------------------------
 #P Geom=AllCheck Guess=TCheck SCRF=Check MP2=Full/GTLargeXP
 -----------------------------------------------------------

 Structure from the checkpoint file:  "/public/home/users/caep010/.cache/gau_scr/Gau-163794.chk"
 ------
 ZERJIR
 ------
 Charge =  0 Multiplicity = 1

 SCF Done:  E(RHF) =  -637.341762290     A.U. after   15 cycles
 E2 =    -0.2984886076D+01 EUMP2 =    -0.64032664836621D+03
 Normal termination of Gaussian 09 at Fri Aug 27 16:21:25 2021.
 SCF Done:  E(RHF) =  -637.392812370     A.U. after   10 cycles
 Normal termination of Gaussian 09 at Fri Aug 27 16:28:34 2021.

                         Standard orientation:
 ---------------------------------------------------------------------
 Center     Atomic      Atomic             Coordinates (Angstroms)
 Number     Number       Type             X           Y           Z
 ---------------------------------------------------------------------
      1          8           0       -2.427268   -1.499696    0.334384
      2          7           0       -3.067150   -0.438637    0.143950
      3          7           0       -2.454774    0.734517   -0.217913
      4          8           0       -4.278258   -0.381116    0.244334
      5          6           0       -1.123842    0.800406   -0.249301
      6          7           0       -0.649788    2.030636   -0.584656
      7          1           0       -1.350709    2.660232   -0.942464
      8          1           0        0.281544    2.106793   -0.959771
      9          7           0       -0.256885   -0.191305    0.028073
     10          6           0        1.155814   -0.158234    0.039715
     11          1           0       -0.757515   -1.071862    0.182140
     12          6           0        1.839720   -1.264769   -0.476109
     13          6           0        3.228344   -1.305205   -0.444352
     14          1           0        3.745688   -2.169474   -0.846761
     15          1           0        1.273418   -2.085147   -0.904187
     16          6           0        1.880539    0.899725    0.600767
     17          1           0        1.358300    1.735289    1.050483
     18          6           0        3.272567    0.855584    0.612249
     19          1           0        3.824666    1.680460    1.049989
     20          6           0        3.952364   -0.241546    0.091280
     21          1           0        5.035959   -0.272035    0.109155
 ---------------------------------------------------------------------

 SCF Done:  E(RHF) =  -637.402557769     A.U. after    8 cycles

 The electronic state is 1-A.
 Alpha  occ. eigenvalues --  -20.58164 -20.57504 -15.86109 -15.62043 -15.61425
 Alpha  occ. eigenvalues --  -15.59102 -11.41169 -11.31348 -11.26359 -11.26265
 Alpha  occ. eigenvalues --  -11.26135 -11.26025 -11.25598  -1.59596  -1.38131
 Alpha  occ. eigenvalues --   -1.35544  -1.25355  -1.21886  -1.16873  -1.04551
 Alpha  occ. eigenvalues --   -1.04186  -0.95327  -0.87851  -0.85980  -0.83549
 Alpha  occ. eigenvalues --   -0.77861  -0.76028  -0.73315  -0.71998  -0.70569
 Alpha  occ. eigenvalues --   -0.69455  -0.68656  -0.65450  -0.63609  -0.61828
 Alpha  occ. eigenvalues --   -0.60390  -0.55001  -0.54104  -0.52704  -0.52008
 Alpha  occ. eigenvalues --   -0.48588  -0.46626  -0.45567  -0.44668  -0.41199
 Alpha  occ. eigenvalues --   -0.36734  -0.34261
 Alpha virt. eigenvalues --    0.02386   0.03268   0.03646   0.04482   0.05173
 Alpha virt. eigenvalues --    0.05611   0.06229   0.06540   0.06831   0.06888
 Alpha virt. eigenvalues --    0.07517   0.07923   0.08053   0.08786   0.09327

 Mulliken charges:
               1
     1  O   -0.491952
     2  N    0.564155
     3  N   -0.436160
     4  O   -0.400170
     5  C    0.563794
     6  N   -0.701427
     7  H    0.360168
     8  H    0.360148
     9  N   -0.425201
    10  C    0.236105
    11  H    0.424895
    12  C   -0.266304
    13  C   -0.168311
    14  H    0.214214
    15  H    0.213529
    16  C   -0.315672
    17  H    0.243338
    18  C   -0.172245
    19  H    0.213955
    20  C   -0.225895
    21  H    0.209035
 Sum of Mulliken charges =  -0.00000

 Dipole moment (field-independent basis, Debye):
    X=              7.5282    Y=              2.5952    Z=             -1.6241  Tot=              8.1269
 Quadrupole moment (field-independent basis, Debye-Ang):
   XX=            -93.1610   YY=            -69.2384   ZZ=            -75.7909
   XY=             -4.8311   XZ=              2.3839   YZ=              0.8617

 Normal termination of Gaussian 09 at Fri Aug 27 17:16:13 2021.
