 Gaussian 09, Revision E.01,
 Gaussian 09:  ES64L-G09RevE.01 30-Nov-2015

 ----------------
 #P G4 OPT=calcfc
 ----------------

 --------
 ZZZTLC01
 --------
 Symbolic Z-matrix:
 Charge =  0 Multiplicity = 1

 SCF Done:  E(RB3LYP) =  -676.862209188     A.U. after   15 cycles
 SCF Done:  E(RB3LYP) =  -676.933793942     A.U. after   13 cycles
 SCF Done:  E(RB3LYP) =  -676.960787224     A.U. after   13 cycles
 SCF Done:  E(RB3LYP) =  -676.961310617     A.U. after   12 cycles
 SCF Done:  E(RB3LYP) =  -676.961329910     A.U. after    9 cycles
 SCF Done:  E(RB3LYP) =  -676.961331576     A.U. after    9 cycles
 Optimization completed.
    -- Stationary point found.
 Normal termination of Gaussian 09 at Fri Aug 27 10:32:42 2021.

 ----------------------------------------------------------
 #P Geom=AllCheck Guess=TCheck SCRF=Check B3LYP/GTBas3 Freq
 ----------------------------------------------------------

 Structure from the checkpoint file:  "/public/home/users/caep010/.cache/gau_scr/Gau-110459.chk"
 --------
 ZZZTLC01
 --------
 Charge =  0 Multiplicity = 1

 SCF Done:  E(RB3LYP) =  -676.961331576     A.U. after    1 cycles

  Exact polarizability: 116.233  -0.000  92.239   1.136  -0.000  57.821
 Approx polarizability: 159.466  -0.000 173.946   1.067  -0.000  92.474

                      1                      2                      3
                      A                      A                      A
 Frequencies --     50.4391                80.5964               107.8076
 Red. masses --      7.3434                15.4695                 5.2526
 Frc consts  --      0.0110                 0.0592                 0.0360
 IR Inten    --      8.9628                 0.0111                 0.0000

                      4                      5                      6
                      A                      A                      A
 Frequencies --    128.4758               179.3980               244.9153
 Red. masses --      4.5921                 5.2137                 2.7456
 Frc consts  --      0.0447                 0.0989                 0.0970
 IR Inten    --      0.0000                 8.8942                23.0359

                      7                      8                      9
                      A                      A                      A
 Frequencies --    257.8861               285.5019               316.4167
 Red. masses --      2.2039                10.7128                 6.9447
 Frc consts  --      0.0864                 0.5145                 0.4097
 IR Inten    --      0.5909                 0.0000                 0.0000

                     10                     11                     12
                      A                      A                      A
 Frequencies --    358.2455               476.9748               502.4864
 Red. masses --      2.0438                 2.8839                 4.2391
 Frc consts  --      0.1545                 0.3866                 0.6306
 IR Inten    --      0.0000                 0.0000                 7.9820

                     13                     14                     15
                      A                      A                      A
 Frequencies --    572.7961               597.7812               663.1866
 Red. masses --      8.3768                 6.1287                 6.8952
 Frc consts  --      1.6193                 1.2903                 1.7868
 IR Inten    --      8.3665                 0.0000                 0.0000

                     16                     17                     18
                      A                      A                      A
 Frequencies --    688.6276               786.3157               791.1455
 Red. masses --      2.0832                13.6223                11.2405
 Frc consts  --      0.5820                 4.9624                 4.1452
 IR Inten    --      3.3421                 0.0008                33.6262

                     19                     20                     21
                      A                      A                      A
 Frequencies --    838.0745               841.7438               862.3323
 Red. masses --      7.0704                 5.9602                 1.4894
 Frc consts  --      2.9259                 2.4881                 0.6526
 IR Inten    --      0.0000                30.1685                 0.0000

                     22                     23                     24
                      A                      A                      A
 Frequencies --    972.3342               984.2077               995.0312
 Red. masses --      3.1722                 3.7149                 1.8294
 Frc consts  --      1.7670                 2.1202                 1.0672
 IR Inten    --    212.7798                 0.0019                 7.3800

                     25                     26                     27
                      A                      A                      A
 Frequencies --   1063.9089              1083.8096              1110.2019
 Red. masses --      2.1631                 1.7564                 2.6420
 Frc consts  --      1.4426                 1.2156                 1.9186
 IR Inten    --      0.0000                 0.1917               171.0969

                     28                     29                     30
                      A                      A                      A
 Frequencies --   1137.0110              1174.8385              1224.4606
 Red. masses --      2.1924                 2.6089                 1.0620
 Frc consts  --      1.6700                 2.1216                 0.9381
 IR Inten    --      0.0003                 5.6688                 0.0000

                     31                     32                     33
                      A                      A                      A
 Frequencies --   1280.2186              1290.0752              1315.0004
 Red. masses --      9.5176                 2.2931                 1.9503
 Frc consts  --      9.1906                 2.2486                 1.9870
 IR Inten    --      0.0000               490.7519                28.7958

                     34                     35                     36
                      A                      A                      A
 Frequencies --   1330.8660              1339.9058              1347.0053
 Red. masses --      2.5395                 1.7998                 1.7396
 Frc consts  --      2.6501                 1.9038                 1.8596
 IR Inten    --      0.0005                 0.0044               180.2649

                     37                     38                     39
                      A                      A                      A
 Frequencies --   1349.8284              1387.7697              1422.4742
 Red. masses --      1.2571                 1.3650                 1.9079
 Frc consts  --      1.3495                 1.5488                 2.2745
 IR Inten    --      0.0000                 7.2678               169.9285

                     40                     41                     42
                      A                      A                      A
 Frequencies --   1429.4827              1487.6074              1492.2369
 Red. masses --      1.8002                 1.0732                 1.0803
 Frc consts  --      2.1674                 1.3993                 1.4173
 IR Inten    --      0.0002                 0.0000                 2.9777

                     43                     44                     45
                      A                      A                      A
 Frequencies --   1499.8235              1511.0165              1657.8927
 Red. masses --      1.1113                 1.1187                14.4220
 Frc consts  --      1.4729                 1.5048                23.3555
 IR Inten    --     12.1379                 0.0000               527.9535

                     46                     47                     48
                      A                      A                      A
 Frequencies --   1659.3066              3002.8161              3005.2265
 Red. masses --     14.1404                 1.0727                 1.0722
 Frc consts  --     22.9384                 5.6987                 5.7055
 IR Inten    --      0.8762                19.6422                 0.0001

                     49                     50                     51
                      A                      A                      A
 Frequencies --   3015.3220              3018.0125              3162.2835
 Red. masses --      1.0712                 1.0711                 1.0922
 Frc consts  --      5.7386                 5.7480                 6.4353
 IR Inten    --      0.0000                84.3167                 0.0054

                     52                     53                     54
                      A                      A                      A
 Frequencies --   3162.4099              3162.6813              3163.1430
 Red. masses --      1.0885                 1.0940                 1.0902
 Frc consts  --      6.4138                 6.4474                 6.4266
 IR Inten    --      0.9022                 7.4091                 0.0030

 - Thermochemistry -
 -------------------
 Temperature   298.150 Kelvin.  Pressure   1.00000 Atm.
 Atom     1 has atomic number  7 and mass  14.00307

 Molecular mass:   176.05455 amu.
 Principal axes and moments of inertia in atomic units:
                           1         2         3
     Eigenvalues --   662.743153651.530334230.57412
           X            1.00000   0.00000  -0.00310
           Y           -0.00000   1.00000   0.00000
           Z            0.00310  -0.00000   1.00000
 This molecule is an asymmetric top.
 Rotational symmetry number  1.
 Warning -- assumption of classical behavior for rotation
           may cause significant error
 Rotational temperatures (Kelvin)      0.13069     0.02372     0.02047
 Rotational constants (GHZ):           2.72314     0.49424     0.42659
 Zero-point vibrational energy     399967.6 (Joules/Mol)
                                   95.59454 (Kcal/Mol)
 Warning -- explicit consideration of  14 degrees of freedom as
           vibrations may cause significant error
 Vibrational temperatures:     72.57   115.96   155.11   184.85   258.11
          (Kelvin)            352.38   371.04   410.77   455.25   515.43
                              686.26   722.96   824.12   860.07   954.18
                              990.78  1131.33  1138.28  1205.80  1211.08
                             1240.70  1398.97  1416.05  1431.63  1530.73
                             1559.36  1597.33  1635.90  1690.33  1761.72
                             1841.95  1856.13  1891.99  1914.82  1927.82
                             1938.04  1942.10  1996.69  2046.62  2056.70
                             2140.33  2146.99  2157.91  2174.01  2385.33
                             2387.37  4320.38  4323.85  4338.37  4342.24
                             4549.81  4550.00  4550.39  4551.05

 Zero-point correction=                           0.152340 (Hartree/Particle)
 Thermal correction to Energy=                    0.162711
 Thermal correction to Enthalpy=                  0.163656
 Thermal correction to Gibbs Free Energy=         0.115351
 Sum of electronic and zero-point Energies=           -676.808992
 Sum of electronic and thermal Energies=              -676.798620
 Sum of electronic and thermal Enthalpies=            -676.797676
 Sum of electronic and thermal Free Energies=         -676.845980

                     E (Thermal)             CV                S
                      KCal/Mol        Cal/Mol-Kelvin    Cal/Mol-Kelvin
 Total                  102.103             37.935            101.665
 Electronic               0.000              0.000              0.000
 Translational            0.889              2.981             41.404
 Rotational               0.889              2.981             30.705
 Vibrational            100.325             31.973             29.556
 Vibration     1          0.595              1.977              4.800
 Vibration     2          0.600              1.962              3.876
 Vibration     3          0.606              1.943              3.308
 Vibration     4          0.611              1.925              2.969
 Vibration     5          0.629              1.868              2.335
 Vibration     6          0.660              1.771              1.767
 Vibration     7          0.667              1.749              1.676
 Vibration     8          0.683              1.701              1.500
 Vibration     9          0.703              1.642              1.329
 Vibration    10          0.733              1.558              1.130
 Vibration    11          0.834              1.301              0.718
 Vibration    12          0.858              1.244              0.652
 Vibration    13          0.929              1.090              0.499
 Vibration    14          0.956              1.037              0.453

 Optimization completed.
    -- Stationary point found.
 Normal termination of Gaussian 09 at Fri Aug 27 10:35:11 2021.

 -----------------------------------------------------------------
 #P Geom=AllCheck Guess=TCheck SCRF=Check CCSD(T,E4T,FrzG4)/GTBas1
 -----------------------------------------------------------------

 Structure from the checkpoint file:  "/public/home/users/caep010/.cache/gau_scr/Gau-110459.chk"
 --------
 ZZZTLC01
 --------
 Charge =  0 Multiplicity = 1

 SCF Done:  E(RHF) =  -673.077085410     A.U. after   14 cycles
 E2 =    -0.1930595208D+01 EUMP2 =    -0.67500768061787D+03
 CCSD(T)
 CCSD(T)= -0.67511162917D+03
 MP4SDTQ=-675.1326955\MP4SDQ=-675.0400658\CCSD=-675.0329047\CCSD(T)=-67
 Normal termination of Gaussian 09 at Fri Aug 27 11:38:34 2021.

 ---------------------------------------------------------
 #P Geom=AllCheck Guess=TCheck SCRF=Check MP4=FrzG4/GTBas2
 ---------------------------------------------------------

 Structure from the checkpoint file:  "/public/home/users/caep010/.cache/gau_scr/Gau-110459.chk"
 --------
 ZZZTLC01
 --------
 Charge =  0 Multiplicity = 1

 SCF Done:  E(RHF) =  -673.095951930     A.U. after   13 cycles
 E2 =    -0.1957464705D+01 EUMP2 =    -0.67505341663463D+03
 Normal termination of Gaussian 09 at Fri Aug 27 12:03:07 2021.

 ---------------------------------------------------------
 #P Geom=AllCheck Guess=TCheck SCRF=Check MP4=FrzG4/GTBas3
 ---------------------------------------------------------

 Structure from the checkpoint file:  "/public/home/users/caep010/.cache/gau_scr/Gau-110459.chk"
 --------
 ZZZTLC01
 --------
 Charge =  0 Multiplicity = 1

 SCF Done:  E(RHF) =  -673.148367329     A.U. after   12 cycles
 E2 =    -0.2325058105D+01 EUMP2 =    -0.67547342543381D+03
 Normal termination of Gaussian 09 at Fri Aug 27 15:54:49 2021.

 -----------------------------------------------------------
 #P Geom=AllCheck Guess=TCheck SCRF=Check MP2=Full/GTLargeXP
 -----------------------------------------------------------

 Structure from the checkpoint file:  "/public/home/users/caep010/.cache/gau_scr/Gau-110459.chk"
 --------
 ZZZTLC01
 --------
 Charge =  0 Multiplicity = 1

 SCF Done:  E(RHF) =  -673.321810056     A.U. after   12 cycles
 E2 =    -0.3009113517D+01 EUMP2 =    -0.67633092357317D+03
 Normal termination of Gaussian 09 at Fri Aug 27 16:13:40 2021.
 SCF Done:  E(RHF) =  -673.376250466     A.U. after    9 cycles
 Normal termination of Gaussian 09 at Fri Aug 27 16:19:08 2021.

                         Standard orientation:
 ---------------------------------------------------------------------
 Center     Atomic      Atomic             Coordinates (Angstroms)
 Number     Number       Type             X           Y           Z
 ---------------------------------------------------------------------
      1          7           0        2.775893    0.000000    0.044200
      2          8           0        3.328206   -1.089546    0.032100
      3          8           0        3.328205    1.089546    0.032097
      4          7           0        1.380863   -0.000000    0.132629
      5          6           0        0.713826   -1.236398   -0.270051
      6          6           0        0.713826    1.236398   -0.270050
      7          6           0       -0.713823   -1.236411    0.270880
      8          6           0       -0.713823    1.236411    0.270881
      9          7           0       -1.380823   -0.000000   -0.131745
     10          7           0       -2.775872    0.000000   -0.044707
     11          1           0        1.264779   -2.079005    0.142294
     12          1           0        1.264779    2.079005    0.142294
     13          1           0        0.702552   -1.328529   -1.365705
     14          1           0        0.702551    1.328529   -1.365704
     15          1           0       -1.264847   -2.078987   -0.141435
     16          1           0       -1.264847    2.078987   -0.141433
     17          1           0       -0.702520   -1.328522    1.366537
     18          1           0       -0.702519    1.328521    1.366538
     19          8           0       -3.328230   -1.089549   -0.033099
     20          8           0       -3.328230    1.089549   -0.033097
 ---------------------------------------------------------------------

 SCF Done:  E(RHF) =  -673.387217658     A.U. after    8 cycles

 The electronic state is 1-A.
 Alpha  occ. eigenvalues --  -20.61198 -20.61196 -20.61193 -20.61191 -15.89766
 Alpha  occ. eigenvalues --  -15.89765 -15.66467 -15.66466 -11.30997 -11.30995
 Alpha  occ. eigenvalues --  -11.30935 -11.30933  -1.63794  -1.63758  -1.42231
 Alpha  occ. eigenvalues --   -1.42223  -1.33684  -1.29421  -1.09376  -1.07795
 Alpha  occ. eigenvalues --   -0.96601  -0.93706  -0.86389  -0.82141  -0.81493
 Alpha  occ. eigenvalues --   -0.78527  -0.76597  -0.75690  -0.74646  -0.74366
 Alpha  occ. eigenvalues --   -0.68395  -0.67922  -0.65716  -0.62659  -0.60843
 Alpha  occ. eigenvalues --   -0.59377  -0.56050  -0.55319  -0.52538  -0.52440
 Alpha  occ. eigenvalues --   -0.51171  -0.49792  -0.47787  -0.47673  -0.45211
 Alpha  occ. eigenvalues --   -0.43492
 Alpha virt. eigenvalues --    0.03166   0.03343   0.03472   0.05050   0.05166
 Alpha virt. eigenvalues --    0.05839   0.06354   0.06384   0.07755   0.08142
 Alpha virt. eigenvalues --    0.08396   0.09008   0.09269   0.09826   0.10320

 Mulliken charges:
               1
     1  N    0.527409
     2  O   -0.423399
     3  O   -0.423398
     4  N    0.039428
     5  C   -0.300787
     6  C   -0.300787
     7  C   -0.300763
     8  C   -0.300763
     9  N    0.039290
    10  N    0.527546
    11  H    0.245946
    12  H    0.245946
    13  H    0.194810
    14  H    0.194810
    15  H    0.245991
    16  H    0.245991
    17  H    0.194811
    18  H    0.194811
    19  O   -0.423446
    20  O   -0.423446
 Sum of Mulliken charges =  -0.00000

 Dipole moment (field-independent basis, Debye):
    X=              0.0006    Y=              0.0000    Z=              0.0026  Tot=              0.0026
 Quadrupole moment (field-independent basis, Debye-Ang):
   XX=           -106.8671   YY=            -67.5324   ZZ=            -66.5349
   XY=              0.0000   XZ=             -1.6493   YZ=              0.0000

 Normal termination of Gaussian 09 at Fri Aug 27 16:58:58 2021.
