 Gaussian 09, Revision E.01,
 Gaussian 09:  ES64L-G09RevE.01 30-Nov-2015

 ----------------
 #P G4 OPT=calcfc
 ----------------

 --------
 ZZZGVU01
 --------
 Symbolic Z-matrix:
 Charge =  0 Multiplicity = 1

 SCF Done:  E(RB3LYP) =  -680.608229705     A.U. after   15 cycles
 SCF Done:  E(RB3LYP) =  -680.611373846     A.U. after   14 cycles
 SCF Done:  E(RB3LYP) =  -680.611519072     A.U. after   15 cycles
 SCF Done:  E(RB3LYP) =  -680.611573897     A.U. after   12 cycles
 SCF Done:  E(RB3LYP) =  -680.611579662     A.U. after   11 cycles
 SCF Done:  E(RB3LYP) =  -680.611581466     A.U. after   12 cycles
 SCF Done:  E(RB3LYP) =  -680.611581653     A.U. after   10 cycles
 Optimization completed.
    -- Stationary point found.
 Normal termination of Gaussian 09 at Fri Aug 27 10:16:35 2021.

 ----------------------------------------------------------
 #P Geom=AllCheck Guess=TCheck SCRF=Check B3LYP/GTBas3 Freq
 ----------------------------------------------------------

 Structure from the checkpoint file:  "/public/home/users/caep010/.cache/gau_scr/Gau-54639.chk"
 --------
 ZZZGVU01
 --------
 Charge =  0 Multiplicity = 1

 SCF Done:  E(RB3LYP) =  -680.611581653     A.U. after    1 cycles

  Exact polarizability: 147.731   3.509 120.586   1.205   0.756  48.405
 Approx polarizability: 240.676   4.149 234.192   6.440   5.154  81.491

                      1                      2                      3
                      A                      A                      A
 Frequencies --     28.3142                54.8314               105.6697
 Red. masses --     11.0651                13.3725                 4.1779
 Frc consts  --      0.0052                 0.0237                 0.0275
 IR Inten    --      0.2238                 0.4700                 0.6833

                      4                      5                      6
                      A                      A                      A
 Frequencies --    158.7100               168.1190               222.6018
 Red. masses --      5.6599                12.0518                 1.0560
 Frc consts  --      0.0840                 0.2007                 0.0308
 IR Inten    --      2.4132                 3.2635                 0.9619

                      7                      8                      9
                      A                      A                      A
 Frequencies --    288.3944               297.4928               351.1558
 Red. masses --      5.2865                 4.4788                10.2176
 Frc consts  --      0.2591                 0.2335                 0.7423
 IR Inten    --      0.8186                 1.6921                 1.1855

                     10                     11                     12
                      A                      A                      A
 Frequencies --    354.6544               395.1148               448.3448
 Red. masses --      7.0136                 4.7137                 3.4765
 Frc consts  --      0.5198                 0.4336                 0.4117
 IR Inten    --      1.1939                 0.6037                 0.1818

                     13                     14                     15
                      A                      A                      A
 Frequencies --    505.9999               531.5093               574.7838
 Red. masses --      5.0080                 6.3043                 4.5991
 Frc consts  --      0.7555                 1.0493                 0.8952
 IR Inten    --      2.6211                 2.3116                 0.3767

                     16                     17                     18
                      A                      A                      A
 Frequencies --    650.2175               691.7700               716.8322
 Red. masses --      7.0520                 4.9019                 6.3911
 Frc consts  --      1.7566                 1.3821                 1.9349
 IR Inten    --      4.4111                 4.8716                21.8655

                     19                     20                     21
                      A                      A                      A
 Frequencies --    762.7010               797.8508               802.5025
 Red. masses --      3.4379                 6.5297                 6.6839
 Frc consts  --      1.1783                 2.4490                 2.5362
 IR Inten    --     29.3790                10.6901                 8.3718

                     22                     23                     24
                      A                      A                      A
 Frequencies --    852.4226               864.9935               932.5477
 Red. masses --     13.3854                 1.4096                 7.2147
 Frc consts  --      5.7305                 0.6214                 3.6967
 IR Inten    --     23.7111                 6.6169                32.6845

                     25                     26                     27
                      A                      A                      A
 Frequencies --    972.8261               994.3517              1023.2638
 Red. masses --      1.4824                 1.3833                 1.4561
 Frc consts  --      0.8266                 0.8058                 0.8983
 IR Inten    --      7.2818                 2.2953                 2.3308

                     28                     29                     30
                      A                      A                      A
 Frequencies --   1060.4014              1074.3896              1147.7810
 Red. masses --      1.5906                 2.0349                 3.7144
 Frc consts  --      1.0538                 1.3839                 2.8831
 IR Inten    --      4.0815                45.5069                12.6600

                     31                     32                     33
                      A                      A                      A
 Frequencies --   1166.2100              1217.7762              1281.5876
 Red. masses --      1.3303                 3.7848                 1.4477
 Frc consts  --      1.0660                 3.3070                 1.4010
 IR Inten    --     17.4017                 6.4311                 6.2210

                     34                     35                     36
                      A                      A                      A
 Frequencies --   1353.9443              1387.1421              1398.9983
 Red. masses --      6.2840                13.1830                12.7653
 Frc consts  --      6.7872                14.9454                14.7202
 IR Inten    --      3.1172               372.4690               128.9415

                     37                     38                     39
                      A                      A                      A
 Frequencies --   1416.0174              1421.7039              1473.9928
 Red. masses --      1.4982                 2.1984                 1.0554
 Frc consts  --      1.7699                 2.6180                 1.3510
 IR Inten    --      0.4753                10.6048                 6.3083

                     40                     41                     42
                      A                      A                      A
 Frequencies --   1486.3559              1505.3152              1601.7327
 Red. masses --      1.1941                 2.6046                 9.0790
 Frc consts  --      1.5543                 3.4773                13.7236
 IR Inten    --     15.0077                10.4451                85.2440

                     43                     44                     45
                      A                      A                      A
 Frequencies --   1620.6012              1657.2750              1663.7793
 Red. masses --      8.8853                 9.1202                11.7948
 Frc consts  --     13.7490                14.7586                19.2368
 IR Inten    --     37.9046               116.5269               218.7854

                     46                     47                     48
                      A                      A                      A
 Frequencies --   3056.8471              3124.8654              3135.3986
 Red. masses --      1.0354                 1.0988                 1.1035
 Frc consts  --      5.7006                 6.3215                 6.3918
 IR Inten    --      7.7085                 2.9175                15.6000

                     49                     50                     51
                      A                      A                      A
 Frequencies --   3193.8424              3237.0011              3262.7130
 Red. masses --      1.0895                 1.0926                 1.0905
 Frc consts  --      6.5481                 6.7450                 6.8396
 IR Inten    --      5.6877                 3.0909                19.7473

 - Thermochemistry -
 -------------------
 Temperature   298.150 Kelvin.  Pressure   1.00000 Atm.
 Atom     1 has atomic number  6 and mass  12.00000

 Molecular mass:   182.03276 amu.
 Principal axes and moments of inertia in atomic units:
                           1         2         3
     Eigenvalues --  1212.807363268.624504452.45502
           X            0.99969   0.02476  -0.00058
           Y           -0.02476   0.99969  -0.00198
           Z            0.00053   0.00200   1.00000
 This molecule is an asymmetric top.
 Rotational symmetry number  1.
 Warning -- assumption of classical behavior for rotation
           may cause significant error
 Rotational temperatures (Kelvin)      0.07142     0.02650     0.01945
 Rotational constants (GHZ):           1.48807     0.55214     0.40534
 Zero-point vibrational energy     349869.7 (Joules/Mol)
                                   83.62087 (Kcal/Mol)
 Warning -- explicit consideration of  15 degrees of freedom as
           vibrations may cause significant error
 Vibrational temperatures:     40.74    78.89   152.03   228.35   241.89
          (Kelvin)            320.27   414.93   428.03   505.23   510.27
                              568.48   645.07   728.02   764.72   826.98
                              935.52   995.30  1031.36  1097.36  1147.93
                             1154.62  1226.44  1244.53  1341.73  1399.68
                             1430.65  1472.25  1525.68  1545.81  1651.40
                             1677.91  1752.11  1843.92  1948.02  1995.79
                             2012.84  2037.33  2045.51  2120.74  2138.53
                             2165.81  2304.53  2331.68  2384.45  2393.80
                             4398.12  4495.98  4511.13  4595.22  4657.32
                             4694.31

 Zero-point correction=                           0.133258 (Hartree/Particle)
 Thermal correction to Energy=                    0.144115
 Thermal correction to Enthalpy=                  0.145059
 Thermal correction to Gibbs Free Energy=         0.095080
 Sum of electronic and zero-point Energies=           -680.478323
 Sum of electronic and thermal Energies=              -680.467466
 Sum of electronic and thermal Enthalpies=            -680.466522
 Sum of electronic and thermal Free Energies=         -680.516501

                     E (Thermal)             CV                S
                      KCal/Mol        Cal/Mol-Kelvin    Cal/Mol-Kelvin
 Total                   90.434             40.009            105.189
 Electronic               0.000              0.000              0.000
 Translational            0.889              2.981             41.504
 Rotational               0.889              2.981             31.246
 Vibrational             88.656             34.047             32.440
 Vibration     1          0.593              1.984              5.944
 Vibration     2          0.596              1.976              4.635
 Vibration     3          0.605              1.945              3.347
 Vibration     4          0.621              1.893              2.565
 Vibration     5          0.625              1.882              2.456
 Vibration     6          0.648              1.807              1.938
 Vibration     7          0.685              1.695              1.483
 Vibration     8          0.691              1.678              1.431
 Vibration     9          0.728              1.573              1.161
 Vibration    10          0.731              1.566              1.145
 Vibration    11          0.762              1.481              0.981
 Vibration    12          0.807              1.365              0.801
 Vibration    13          0.861              1.237              0.643
 Vibration    14          0.886              1.180              0.584
 Vibration    15          0.931              1.086              0.495

 Optimization completed.
    -- Stationary point found.
 Normal termination of Gaussian 09 at Fri Aug 27 10:19:21 2021.

 -----------------------------------------------------------------
 #P Geom=AllCheck Guess=TCheck SCRF=Check CCSD(T,E4T,FrzG4)/GTBas1
 -----------------------------------------------------------------

 Structure from the checkpoint file:  "/public/home/users/caep010/.cache/gau_scr/Gau-54639.chk"
 --------
 ZZZGVU01
 --------
 Charge =  0 Multiplicity = 1

 SCF Done:  E(RHF) =  -676.666144466     A.U. after   15 cycles
 E2 =    -0.1973592764D+01 EUMP2 =    -0.67863973723015D+03
 CCSD(T)
 CCSD(T)= -0.67874653391D+03
 678.6617722\CCSD=-678.6548957\CCSD(T)=-678.7465339\RMSD=8.168e-09\PG=C
 Normal termination of Gaussian 09 at Fri Aug 27 11:38:18 2021.

 ---------------------------------------------------------
 #P Geom=AllCheck Guess=TCheck SCRF=Check MP4=FrzG4/GTBas2
 ---------------------------------------------------------

 Structure from the checkpoint file:  "/public/home/users/caep010/.cache/gau_scr/Gau-54639.chk"
 --------
 ZZZGVU01
 --------
 Charge =  0 Multiplicity = 1

 SCF Done:  E(RHF) =  -676.684715212     A.U. after   20 cycles
 E2 =    -0.1998707724D+01 EUMP2 =    -0.67868342293586D+03
 Normal termination of Gaussian 09 at Fri Aug 27 12:12:14 2021.

 ---------------------------------------------------------
 #P Geom=AllCheck Guess=TCheck SCRF=Check MP4=FrzG4/GTBas3
 ---------------------------------------------------------

 Structure from the checkpoint file:  "/public/home/users/caep010/.cache/gau_scr/Gau-54639.chk"
 --------
 ZZZGVU01
 --------
 Charge =  0 Multiplicity = 1

 SCF Done:  E(RHF) =  -676.734181420     A.U. after   12 cycles
 E2 =    -0.2355353979D+01 EUMP2 =    -0.67908953539879D+03
 Normal termination of Gaussian 09 at Fri Aug 27 15:59:13 2021.

 -----------------------------------------------------------
 #P Geom=AllCheck Guess=TCheck SCRF=Check MP2=Full/GTLargeXP
 -----------------------------------------------------------

 Structure from the checkpoint file:  "/public/home/users/caep010/.cache/gau_scr/Gau-54639.chk"
 --------
 ZZZGVU01
 --------
 Charge =  0 Multiplicity = 1

 SCF Done:  E(RHF) =  -676.901605802     A.U. after   14 cycles
 E2 =    -0.3074638849D+01 EUMP2 =    -0.67997624465071D+03
 Normal termination of Gaussian 09 at Fri Aug 27 16:12:09 2021.
 SCF Done:  E(RHF) =  -676.956413017     A.U. after   10 cycles
 Normal termination of Gaussian 09 at Fri Aug 27 16:19:08 2021.

                         Standard orientation:
 ---------------------------------------------------------------------
 Center     Atomic      Atomic             Coordinates (Angstroms)
 Number     Number       Type             X           Y           Z
 ---------------------------------------------------------------------
      1          6           0        1.221847    1.199003   -0.028471
      2          6           0        2.589547    1.827556   -0.057336
      3          6           0        0.098164    2.039264   -0.041082
      4          6           0        0.960379   -0.183962   -0.005735
      5          7           0        2.050447   -1.185338    0.008203
      6          6           0       -0.329064   -0.702876    0.003539
      7          6           0       -1.395327    0.177811    0.005103
      8          6           0       -1.200247    1.553096   -0.018252
      9          7           0       -2.767600   -0.359664    0.027714
     10          8           0       -3.685284    0.449844    0.019050
     11          8           0        3.178798   -0.802496    0.289258
     12          8           0        1.754230   -2.342047   -0.253813
     13          8           0       -2.897619   -1.574823    0.053757
     14          1           0       -0.489411   -1.770606    0.009735
     15          1           0       -2.057268    2.213061   -0.021570
     16          1           0        0.258994    3.111255   -0.068667
     17          1           0        3.126283    1.647071    0.877139
     18          1           0        3.212736    1.406231   -0.849080
     19          1           0        2.495947    2.904827   -0.211585
 ---------------------------------------------------------------------

 SCF Done:  E(RHF) =  -676.966987811     A.U. after    8 cycles

 The electronic state is 1-A.
 Alpha  occ. eigenvalues --  -20.61602 -20.61550 -20.61520 -20.61493 -15.87046
 Alpha  occ. eigenvalues --  -15.86941 -11.33605 -11.33103 -11.32159 -11.30827
 Alpha  occ. eigenvalues --  -11.30495 -11.28477 -11.25838  -1.62266  -1.62122
 Alpha  occ. eigenvalues --   -1.41624  -1.41568  -1.23781  -1.14341  -1.10915
 Alpha  occ. eigenvalues --   -1.03096  -0.99224  -0.93388  -0.87545  -0.84151
 Alpha  occ. eigenvalues --   -0.80924  -0.75994  -0.74595  -0.74182  -0.73773
 Alpha  occ. eigenvalues --   -0.73457  -0.70041  -0.69380  -0.65674  -0.61148
 Alpha  occ. eigenvalues --   -0.59241  -0.57360  -0.56936  -0.55130  -0.51582
 Alpha  occ. eigenvalues --   -0.51418  -0.51001  -0.50281  -0.47057  -0.47003
 Alpha  occ. eigenvalues --   -0.40536  -0.39322
 Alpha virt. eigenvalues --    0.01462   0.02461   0.02712   0.03655   0.04643
 Alpha virt. eigenvalues --    0.04975   0.05755   0.06094   0.06660   0.06934
 Alpha virt. eigenvalues --    0.07226   0.08304   0.08615   0.09110   0.09336

 Mulliken charges:
               1
     1  C    0.243329
     2  C   -0.657296
     3  C   -0.200928
     4  C    0.093380
     5  N    0.509688
     6  C   -0.155286
     7  C    0.103612
     8  C   -0.186542
     9  N    0.544390
    10  O   -0.434386
    11  O   -0.419712
    12  O   -0.427834
    13  O   -0.429976
    14  H    0.307207
    15  H    0.271510
    16  H    0.218303
    17  H    0.218130
    18  H    0.218119
    19  H    0.184290
 Sum of Mulliken charges =  -0.00000

 Dipole moment (field-independent basis, Debye):
    X=              1.7419    Y=              5.2687    Z=             -0.1215  Tot=              5.5505
 Quadrupole moment (field-independent basis, Debye-Ang):
   XX=            -95.7816   YY=            -74.1361   ZZ=            -73.6389
   XY=              4.5946   XZ=             -0.6712   YZ=             -0.7664

 Normal termination of Gaussian 09 at Fri Aug 27 17:06:40 2021.
