 Gaussian 09, Revision E.01,
 Gaussian 09:  ES64L-G09RevE.01 30-Nov-2015

 ----------------
 #P G4 OPT=calcfc
 ----------------

 ------
 ZEVQUM
 ------
 Symbolic Z-matrix:
 Charge =  0 Multiplicity = 1

 SCF Done:  E(RB3LYP) =  -582.188202185     A.U. after   15 cycles
 SCF Done:  E(RB3LYP) =  -582.253780508     A.U. after   13 cycles
 SCF Done:  E(RB3LYP) =  -582.271518018     A.U. after   13 cycles
 SCF Done:  E(RB3LYP) =  -582.272982327     A.U. after   12 cycles
 SCF Done:  E(RB3LYP) =  -582.273105670     A.U. after   12 cycles
 SCF Done:  E(RB3LYP) =  -582.273107643     A.U. after    9 cycles
 SCF Done:  E(RB3LYP) =  -582.273107692     A.U. after    8 cycles
 Optimization completed.
    -- Stationary point found.
 Normal termination of Gaussian 09 at Fri Aug 27 10:04:53 2021.

 ----------------------------------------------------------
 #P Geom=AllCheck Guess=TCheck SCRF=Check B3LYP/GTBas3 Freq
 ----------------------------------------------------------

 Structure from the checkpoint file:  "/public/home/users/caep010/.cache/gau_scr/Gau-44369.chk"
 ------
 ZEVQUM
 ------
 Charge =  0 Multiplicity = 1

 SCF Done:  E(RB3LYP) =  -582.273107691     A.U. after    1 cycles

  Exact polarizability:  88.741   0.000  62.456   2.638   0.000  53.789
 Approx polarizability: 127.178   0.001 112.473  11.839   0.001 101.113

                      1                      2                      3
                      A                      A                      A
 Frequencies --     34.4136                60.8441               125.1902
 Red. masses --     10.4284                 6.5460                 6.9792
 Frc consts  --      0.0073                 0.0143                 0.0644
 IR Inten    --      1.2573                 7.2089                 5.2400

                      4                      5                      6
                      A                      A                      A
 Frequencies --    175.0364               210.9584               317.9709
 Red. masses --      7.0836                 8.9931                 3.2182
 Frc consts  --      0.1279                 0.2358                 0.1917
 IR Inten    --      4.7809                 1.2941                 0.9178

                      7                      8                      9
                      A                      A                      A
 Frequencies --    324.2445               391.2486               546.4828
 Red. masses --      2.5784                 9.4765                 6.0171
 Frc consts  --      0.1597                 0.8547                 1.0587
 IR Inten    --     16.1123                 5.5086                 6.6565

                     10                     11                     12
                      A                      A                      A
 Frequencies --    609.4608               646.1712               738.0547
 Red. masses --      6.4583                 2.9038                 5.4543
 Frc consts  --      1.4134                 0.7144                 1.7505
 IR Inten    --      4.2820                 6.4579                 1.7645

                     13                     14                     15
                      A                      A                      A
 Frequencies --    781.3794               816.9896               864.8308
 Red. masses --     11.2355                 8.0509                 5.0161
 Frc consts  --      4.0417                 3.1661                 2.2105
 IR Inten    --     19.0233                 3.4971                40.5950

                     16                     17                     18
                      A                      A                      A
 Frequencies --    868.0467               918.9576              1009.4957
 Red. masses --      1.5387                 5.9318                 3.1281
 Frc consts  --      0.6831                 2.9514                 1.8782
 IR Inten    --      2.4168                 1.3672                31.0491

                     19                     20                     21
                      A                      A                      A
 Frequencies --   1021.6302              1092.1529              1134.9478
 Red. masses --      2.7854                 2.1800                 1.1618
 Frc consts  --      1.7129                 1.5321                 0.8817
 IR Inten    --      0.1148                 0.0248                 0.9674

                     22                     23                     24
                      A                      A                      A
 Frequencies --   1171.6558              1179.4846              1199.8895
 Red. masses --      2.7990                 2.7050                 1.5196
 Frc consts  --      2.2639                 2.2172                 1.2890
 IR Inten    --     21.0505                 3.9684                61.3969

                     25                     26                     27
                      A                      A                      A
 Frequencies --   1259.4414              1289.2110              1297.7571
 Red. masses --      1.7715                 1.3549                 1.6402
 Frc consts  --      1.6556                 1.3268                 1.6276
 IR Inten    --      6.2667                 0.2172               182.4500

                     28                     29                     30
                      A                      A                      A
 Frequencies --   1328.5530              1377.9670              1425.1173
 Red. masses --      1.5615                 4.8769                 8.6872
 Frc consts  --      1.6238                 5.4560                10.3952
 IR Inten    --     32.6872               230.8427               116.1176

                     31                     32                     33
                      A                      A                      A
 Frequencies --   1483.8809              1504.0714              1658.3745
 Red. masses --      1.0744                 1.1534                14.3106
 Frc consts  --      1.3939                 1.5374                23.1885
 IR Inten    --      8.3213                 4.0844               266.9868

                     34                     35                     36
                      A                      A                      A
 Frequencies --   1667.7392              3079.5733              3084.5654
 Red. masses --     10.1026                 1.0561                 1.0595
 Frc consts  --     16.5554                 5.9013                 5.9394
 IR Inten    --    229.0149                12.2683                 6.1142

                     37                     38                     39
                      A                      A                      A
 Frequencies --   3146.3028              3146.5429              3178.6549
 Red. masses --      1.1113                 1.1088                 1.0896
 Frc consts  --      6.4816                 6.4681                 6.4864
 IR Inten    --      3.4325                 1.5941                 0.8300

 - Thermochemistry -
 -------------------
 Temperature   298.150 Kelvin.  Pressure   1.00000 Atm.
 Atom     1 has atomic number  7 and mass  14.00307

 Molecular mass:   147.02801 amu.
 Principal axes and moments of inertia in atomic units:
                           1         2         3
     Eigenvalues --   446.768792517.407002629.00404
           X            1.00000   0.00000   0.00132
           Y           -0.00000   1.00000  -0.00000
           Z           -0.00132   0.00000   1.00000
 This molecule is an asymmetric top.
 Rotational symmetry number  1.
 Warning -- assumption of classical behavior for rotation
           may cause significant error
 Rotational temperatures (Kelvin)      0.19387     0.03441     0.03295
 Rotational constants (GHZ):           4.03954     0.71690     0.68647
 Zero-point vibrational energy     276141.7 (Joules/Mol)
                                   65.99945 (Kcal/Mol)
 Warning -- explicit consideration of  10 degrees of freedom as
           vibrations may cause significant error
 Vibrational temperatures:     49.51    87.54   180.12   251.84   303.52
          (Kelvin)            457.49   466.51   562.92   786.27   876.88
                              929.70  1061.89  1124.23  1175.46  1244.30
                             1248.92  1322.17  1452.44  1469.90  1571.36
                             1632.93  1685.75  1697.01  1726.37  1812.05
                             1854.88  1867.18  1911.49  1982.58  2050.42
                             2134.97  2164.02  2386.03  2399.50  4430.81
                             4438.00  4526.82  4527.17  4573.37

 Zero-point correction=                           0.105177 (Hartree/Particle)
 Thermal correction to Energy=                    0.113787
 Thermal correction to Enthalpy=                  0.114731
 Thermal correction to Gibbs Free Energy=         0.069847
 Sum of electronic and zero-point Energies=           -582.167931
 Sum of electronic and thermal Energies=              -582.159321
 Sum of electronic and thermal Enthalpies=            -582.158377
 Sum of electronic and thermal Free Energies=         -582.203261

                     E (Thermal)             CV                S
                      KCal/Mol        Cal/Mol-Kelvin    Cal/Mol-Kelvin
 Total                   71.402             29.987             94.467
 Electronic               0.000              0.000              0.000
 Translational            0.889              2.981             40.867
 Rotational               0.889              2.981             29.471
 Vibrational             69.625             24.026             24.129
 Vibration     1          0.594              1.983              5.557
 Vibration     2          0.597              1.973              4.430
 Vibration     3          0.610              1.928              3.019
 Vibration     4          0.627              1.873              2.381
 Vibration     5          0.643              1.824              2.035
 Vibration     6          0.704              1.639              1.321
 Vibration     7          0.709              1.627              1.289
 Vibration     8          0.759              1.489              0.995
 Vibration     9          0.902              1.147              0.552
 Vibration    10          0.968              1.012              0.434

 Optimization completed.
    -- Stationary point found.
 Normal termination of Gaussian 09 at Fri Aug 27 10:06:11 2021.

 -----------------------------------------------------------------
 #P Geom=AllCheck Guess=TCheck SCRF=Check CCSD(T,E4T,FrzG4)/GTBas1
 -----------------------------------------------------------------

 Structure from the checkpoint file:  "/public/home/users/caep010/.cache/gau_scr/Gau-44369.chk"
 ------
 ZEVQUM
 ------
 Charge =  0 Multiplicity = 1

 SCF Done:  E(RHF) =  -579.002127937     A.U. after   15 cycles
 E2 =    -0.1632361908D+01 EUMP2 =    -0.58063448984496D+03
 CCSD(T)
 CCSD(T)= -0.58071336907D+03
 SDTQ=-580.7330835\MP4SDQ=-580.6523825\CCSD=-580.6452523\CCSD(T)=-580.7
 Normal termination of Gaussian 09 at Fri Aug 27 10:24:50 2021.

 ---------------------------------------------------------
 #P Geom=AllCheck Guess=TCheck SCRF=Check MP4=FrzG4/GTBas2
 ---------------------------------------------------------

 Structure from the checkpoint file:  "/public/home/users/caep010/.cache/gau_scr/Gau-44369.chk"
 ------
 ZEVQUM
 ------
 Charge =  0 Multiplicity = 1

 SCF Done:  E(RHF) =  -579.019929574     A.U. after   14 cycles
 E2 =    -0.1655524846D+01 EUMP2 =    -0.58067545442047D+03
 Normal termination of Gaussian 09 at Fri Aug 27 10:33:50 2021.

 ---------------------------------------------------------
 #P Geom=AllCheck Guess=TCheck SCRF=Check MP4=FrzG4/GTBas3
 ---------------------------------------------------------

 Structure from the checkpoint file:  "/public/home/users/caep010/.cache/gau_scr/Gau-44369.chk"
 ------
 ZEVQUM
 ------
 Charge =  0 Multiplicity = 1

 SCF Done:  E(RHF) =  -579.063890140     A.U. after   13 cycles
 E2 =    -0.1959006501D+01 EUMP2 =    -0.58102289664080D+03
 Normal termination of Gaussian 09 at Fri Aug 27 11:25:09 2021.

 -----------------------------------------------------------
 #P Geom=AllCheck Guess=TCheck SCRF=Check MP2=Full/GTLargeXP
 -----------------------------------------------------------

 Structure from the checkpoint file:  "/public/home/users/caep010/.cache/gau_scr/Gau-44369.chk"
 ------
 ZEVQUM
 ------
 Charge =  0 Multiplicity = 1

 SCF Done:  E(RHF) =  -579.217037665     A.U. after   13 cycles
 E2 =    -0.2533460362D+01 EUMP2 =    -0.58175049802718D+03
 Normal termination of Gaussian 09 at Fri Aug 27 11:33:20 2021.
 SCF Done:  E(RHF) =  -579.263925541     A.U. after   10 cycles
 Normal termination of Gaussian 09 at Fri Aug 27 11:36:28 2021.

                         Standard orientation:
 ---------------------------------------------------------------------
 Center     Atomic      Atomic             Coordinates (Angstroms)
 Number     Number       Type             X           Y           Z
 ---------------------------------------------------------------------
      1          7           0        2.229410   -0.000000    0.097012
      2          7           0        0.862865    0.000006    0.310022
      3          6           0       -0.984869   -0.000012   -0.707228
      4          6           0        0.030237    1.081020   -0.248245
      5          6           0        0.030235   -1.081029   -0.248201
      6          1           0       -1.278523   -0.000034   -1.751899
      7          1           0       -0.330352    1.786411    0.500902
      8          1           0       -0.330355   -1.786389    0.500974
      9          1           0        0.516216    1.610812   -1.070802
     10          1           0        0.516212   -1.610855   -1.070736
     11          7           0       -2.257782    0.000004    0.090312
     12          8           0       -2.148370    0.000054    1.306897
     13          8           0       -3.302200   -0.000035   -0.539401
     14          8           0        2.763516   -1.096618    0.030786
     15          8           0        2.763520    1.096613    0.030742
 ---------------------------------------------------------------------

 SCF Done:  E(RHF) =  -579.273464637     A.U. after    7 cycles

 The electronic state is 1-A.
 Alpha  occ. eigenvalues --  -20.62922 -20.62391 -20.61638 -20.61633 -15.89913
 Alpha  occ. eigenvalues --  -15.87118 -15.66825 -11.35026 -11.33190 -11.33188
 Alpha  occ. eigenvalues --   -1.64151  -1.63049  -1.42722  -1.42663  -1.34444
 Alpha  occ. eigenvalues --   -1.15201  -1.02347  -1.00417  -0.87985  -0.82754
 Alpha  occ. eigenvalues --   -0.80603  -0.78444  -0.76176  -0.76055  -0.75121
 Alpha  occ. eigenvalues --   -0.74230  -0.65451  -0.64162  -0.63565  -0.62661
 Alpha  occ. eigenvalues --   -0.54672  -0.53268  -0.51930  -0.51058  -0.50692
 Alpha  occ. eigenvalues --   -0.48013  -0.47751  -0.45460
 Alpha virt. eigenvalues --    0.02245   0.03277   0.04129   0.05044   0.05660
 Alpha virt. eigenvalues --    0.06274   0.06442   0.07448   0.07719   0.07861
 Alpha virt. eigenvalues --    0.08426   0.09826   0.10026   0.10995   0.11937

 Mulliken charges:
               1
     1  N    0.560350
     2  N    0.063894
     3  C   -0.025704
     4  C   -0.297056
     5  C   -0.297057
     6  H    0.251608
     7  H    0.224445
     8  H    0.224444
     9  H    0.227475
    10  H    0.227475
    11  N    0.520454
    12  O   -0.416225
    13  O   -0.401805
    14  O   -0.431149
    15  O   -0.431148
 Sum of Mulliken charges =  -0.00000

 Dipole moment (field-independent basis, Debye):
    X=             -0.9975    Y=             -0.0000    Z=             -2.7924  Tot=              2.9652
 Quadrupole moment (field-independent basis, Debye-Ang):
   XX=            -83.6483   YY=            -54.3863   ZZ=            -56.5622
   XY=             -0.0000   XZ=              1.7140   YZ=             -0.0001

 Normal termination of Gaussian 09 at Fri Aug 27 11:55:46 2021.
