 Gaussian 09, Revision E.01,
 Gaussian 09:  ES64L-G09RevE.01 30-Nov-2015

 ----------------
 #P G4 OPT=calcfc
 ----------------

 --------
 ZZZLYS01
 --------
 Symbolic Z-matrix:
 Charge =  0 Multiplicity = 1

 SCF Done:  E(RB3LYP) =  -791.666443850     A.U. after   15 cycles
 SCF Done:  E(RB3LYP) =  -791.748619950     A.U. after   13 cycles
 SCF Done:  E(RB3LYP) =  -791.769044766     A.U. after   15 cycles
 SCF Done:  E(RB3LYP) =  -791.771001917     A.U. after   15 cycles
 SCF Done:  E(RB3LYP) =  -791.771252875     A.U. after   13 cycles
 SCF Done:  E(RB3LYP) =  -791.771315340     A.U. after   11 cycles
 SCF Done:  E(RB3LYP) =  -791.771341633     A.U. after   10 cycles
 SCF Done:  E(RB3LYP) =  -791.771343156     A.U. after    9 cycles
 Optimization completed.
    -- Stationary point found.
 Normal termination of Gaussian 09 at Fri Aug 27 10:34:12 2021.

 ----------------------------------------------------------
 #P Geom=AllCheck Guess=TCheck SCRF=Check B3LYP/GTBas3 Freq
 ----------------------------------------------------------

 Structure from the checkpoint file:  "/public/home/users/caep010/.cache/gau_scr/Gau-198977.chk"
 --------
 ZZZLYS01
 --------
 Charge =  0 Multiplicity = 1

 SCF Done:  E(RB3LYP) =  -791.771343156     A.U. after    1 cycles

  Exact polarizability: 164.941   0.005 121.344  -0.001  -0.003  43.208
 Approx polarizability: 300.260   0.017 243.268  -0.003  -0.015  72.020

                      1                      2                      3
                      A                      A                      A
 Frequencies --     64.7069                84.0079               112.2044
 Red. masses --     12.6812                13.6783                13.9915
 Frc consts  --      0.0313                 0.0569                 0.1038
 IR Inten    --      0.0000                 0.0145                 0.0000

                      4                      5                      6
                      A                      A                      A
 Frequencies --    144.4094               191.9363               242.8067
 Red. masses --      8.9921                14.2569                 5.9051
 Frc consts  --      0.1105                 0.3094                 0.2051
 IR Inten    --      6.1856                 4.8693                 0.8107

                      7                      8                      9
                      A                      A                      A
 Frequencies --    317.1146               343.5240               352.5990
 Red. masses --      8.1884                12.4386                10.8748
 Frc consts  --      0.4852                 0.8648                 0.7966
 IR Inten    --      1.1375                 0.0000                 5.8781

                     10                     11                     12
                      A                      A                      A
 Frequencies --    370.4821               386.3243               447.0190
 Red. masses --      6.4857                10.8455                10.2899
 Frc consts  --      0.5245                 0.9537                 1.2115
 IR Inten    --     14.1556                 2.0417                 0.3696

                     13                     14                     15
                      A                      A                      A
 Frequencies --    464.4105               511.8303               618.5396
 Red. masses --      3.1958                12.7931                 8.2564
 Frc consts  --      0.4061                 1.9746                 1.8611
 IR Inten    --      1.2109                 0.0894                12.8535

                     16                     17                     18
                      A                      A                      A
 Frequencies --    640.3604               683.7257               689.8461
 Red. masses --      4.5660                11.1452                 3.1898
 Frc consts  --      1.1031                 3.0697                 0.8944
 IR Inten    --      7.1604                 0.0002                14.1709

                     19                     20                     21
                      A                      A                      A
 Frequencies --    733.4563               763.8728               766.2524
 Red. masses --      7.4621                 7.5997                 4.4835
 Frc consts  --      2.3652                 2.6127                 1.5510
 IR Inten    --     31.3643                 0.0593                 0.3931

                     22                     23                     24
                      A                      A                      A
 Frequencies --    792.0505               818.6640               821.4840
 Red. masses --      4.9636                 1.2391                 1.2321
 Frc consts  --      1.8347                 0.4893                 0.4899
 IR Inten    --      0.0373                31.7315               148.3199

                     25                     26                     27
                      A                      A                      A
 Frequencies --    850.0903               884.2558               885.9300
 Red. masses --     13.5819                 1.5167                 4.9587
 Frc consts  --      5.7828                 0.6987                 2.2931
 IR Inten    --     17.2542                15.1282                 1.1330

                     28                     29                     30
                      A                      A                      A
 Frequencies --    977.8671              1067.5145              1155.2556
 Red. masses --      1.4174                 2.4713                 7.5504
 Frc consts  --      0.7986                 1.6593                 5.9371
 IR Inten    --      8.0406               107.3484                31.3191

                     31                     32                     33
                      A                      A                      A
 Frequencies --   1208.5382              1253.1163              1267.1159
 Red. masses --      1.2284                 3.4213                 2.7798
 Frc consts  --      1.0571                 3.1654                 2.6296
 IR Inten    --    118.4277                 1.7154                 0.0165

                     34                     35                     36
                      A                      A                      A
 Frequencies --   1321.7402              1353.6019              1364.9892
 Red. masses --      3.8344                10.1879                 4.0117
 Frc consts  --      3.9468                10.9981                 4.4039
 IR Inten    --    771.5720                61.3285                93.8903

                     37                     38                     39
                      A                      A                      A
 Frequencies --   1406.0207              1474.1807              1519.0960
 Red. masses --      3.5308                 2.6264                 2.9529
 Frc consts  --      4.1125                 3.3629                 4.0149
 IR Inten    --    341.5080                 8.8867               207.8975

                     40                     41                     42
                      A                      A                      A
 Frequencies --   1525.8948              1582.4865              1615.8117
 Red. masses --     10.8690                 8.9950                 4.8874
 Frc consts  --     14.9104                13.2719                 7.5181
 IR Inten    --     56.2064               130.6036               467.7078

                     43                     44                     45
                      A                      A                      A
 Frequencies --   1650.0838              1695.3588              3224.8753
 Red. masses --      4.2695                 6.5941                 1.0912
 Frc consts  --      6.8492                11.1668                 6.6860
 IR Inten    --     90.3352               380.7793                 1.6688

                     46                     47                     48
                      A                      A                      A
 Frequencies --   3248.3824              3345.1146              3351.2787
 Red. masses --      1.0901                 1.0661                 1.0663
 Frc consts  --      6.7774                 7.0285                 7.0561
 IR Inten    --     17.9761               412.5798               301.3505

 - Thermochemistry -
 -------------------
 Temperature   298.150 Kelvin.  Pressure   1.00000 Atm.
 Atom     1 has atomic number  6 and mass  12.00000

 Molecular mass:   200.00694 amu.
 Principal axes and moments of inertia in atomic units:
                           1         2         3
     Eigenvalues --  1456.300053574.156655030.45663
           X            1.00000   0.00000  -0.00000
           Y           -0.00000   1.00000   0.00000
           Z            0.00000  -0.00000   1.00000
 This molecule is an asymmetric top.
 Rotational symmetry number  1.
 Warning -- assumption of classical behavior for rotation
           may cause significant error
 Rotational temperatures (Kelvin)      0.05948     0.02423     0.01722
 Rotational constants (GHZ):           1.23926     0.50494     0.35876
 Zero-point vibrational energy     302596.8 (Joules/Mol)
                                   72.32236 (Kcal/Mol)
 Warning -- explicit consideration of  15 degrees of freedom as
           vibrations may cause significant error
 Vibrational temperatures:     93.10   120.87   161.44   207.77   276.15
          (Kelvin)            349.34   456.26   494.25   507.31   533.04
                              555.83   643.16   668.18   736.41   889.94
                              921.33   983.73   992.53  1055.28  1099.04
                             1102.46  1139.58  1177.87  1181.93  1223.09
                             1272.25  1274.65  1406.93  1535.91  1662.15
                             1738.81  1802.95  1823.09  1901.69  1947.53
                             1963.91  2022.95  2121.01  2185.64  2195.42
                             2276.84  2324.79  2374.10  2439.24  4639.87
                             4673.69  4812.87  4821.74

 Zero-point correction=                           0.115253 (Hartree/Particle)
 Thermal correction to Energy=                    0.126013
 Thermal correction to Enthalpy=                  0.126957
 Thermal correction to Gibbs Free Energy=         0.077935
 Sum of electronic and zero-point Energies=           -791.656090
 Sum of electronic and thermal Energies=              -791.645330
 Sum of electronic and thermal Enthalpies=            -791.644386
 Sum of electronic and thermal Free Energies=         -791.693408

                     E (Thermal)             CV                S
                      KCal/Mol        Cal/Mol-Kelvin    Cal/Mol-Kelvin
 Total                   79.075             40.844            103.177
 Electronic               0.000              0.000              0.000
 Translational            0.889              2.981             41.784
 Rotational               0.889              2.981             31.638
 Vibrational             77.297             34.883             29.754
 Vibration     1          0.597              1.971              4.308
 Vibration     2          0.601              1.960              3.795
 Vibration     3          0.607              1.939              3.230
 Vibration     4          0.616              1.909              2.745
 Vibration     5          0.634              1.851              2.209
 Vibration     6          0.659              1.775              1.782
 Vibration     7          0.704              1.641              1.325
 Vibration     8          0.722              1.588              1.196
 Vibration     9          0.729              1.570              1.155
 Vibration    10          0.742              1.533              1.078
 Vibration    11          0.755              1.499              1.014
 Vibration    12          0.806              1.367              0.805
 Vibration    13          0.822              1.329              0.753
 Vibration    14          0.867              1.224              0.629
 Vibration    15          0.978              0.993              0.419

 Optimization completed.
    -- Stationary point found.
 Normal termination of Gaussian 09 at Fri Aug 27 10:37:29 2021.

 -----------------------------------------------------------------
 #P Geom=AllCheck Guess=TCheck SCRF=Check CCSD(T,E4T,FrzG4)/GTBas1
 -----------------------------------------------------------------

 Structure from the checkpoint file:  "/public/home/users/caep010/.cache/gau_scr/Gau-198977.chk"
 --------
 ZZZLYS01
 --------
 Charge =  0 Multiplicity = 1

 SCF Done:  E(RHF) =  -787.352837493     A.U. after   15 cycles
 E2 =    -0.2197212591D+01 EUMP2 =    -0.78955005008476D+03
 CCSD(T)
 CCSD(T)= -0.78964996184D+03
 8\MP4SDTQ=-789.6766814\MP4SDQ=-789.5618923\CCSD=-789.5530911\CCSD(T)=-
 Normal termination of Gaussian 09 at Fri Aug 27 12:39:41 2021.

 ---------------------------------------------------------
 #P Geom=AllCheck Guess=TCheck SCRF=Check MP4=FrzG4/GTBas2
 ---------------------------------------------------------

 Structure from the checkpoint file:  "/public/home/users/caep010/.cache/gau_scr/Gau-198977.chk"
 --------
 ZZZLYS01
 --------
 Charge =  0 Multiplicity = 1

 SCF Done:  E(RHF) =  -787.375189806     A.U. after   15 cycles
 E2 =    -0.2227111062D+01 EUMP2 =    -0.78960230086815D+03
 Normal termination of Gaussian 09 at Fri Aug 27 13:36:09 2021.

 ---------------------------------------------------------
 #P Geom=AllCheck Guess=TCheck SCRF=Check MP4=FrzG4/GTBas3
 ---------------------------------------------------------

 Structure from the checkpoint file:  "/public/home/users/caep010/.cache/gau_scr/Gau-198977.chk"
 --------
 ZZZLYS01
 --------
 Charge =  0 Multiplicity = 1

 SCF Done:  E(RHF) =  -787.441489663     A.U. after   13 cycles
 E2 =    -0.2629007759D+01 EUMP2 =    -0.79007049742165D+03
 Normal termination of Gaussian 09 at Fri Aug 27 18:47:19 2021.

 -----------------------------------------------------------
 #P Geom=AllCheck Guess=TCheck SCRF=Check MP2=Full/GTLargeXP
 -----------------------------------------------------------

 Structure from the checkpoint file:  "/public/home/users/caep010/.cache/gau_scr/Gau-198977.chk"
 --------
 ZZZLYS01
 --------
 Charge =  0 Multiplicity = 1

 SCF Done:  E(RHF) =  -787.645566248     A.U. after   15 cycles
 E2 =    -0.3423847349D+01 EUMP2 =    -0.79106941359681D+03
 Normal termination of Gaussian 09 at Fri Aug 27 18:59:06 2021.
 SCF Done:  E(RHF) =  -787.709963943     A.U. after   10 cycles
 Normal termination of Gaussian 09 at Fri Aug 27 19:06:44 2021.

                         Standard orientation:
 ---------------------------------------------------------------------
 Center     Atomic      Atomic             Coordinates (Angstroms)
 Number     Number       Type             X           Y           Z
 ---------------------------------------------------------------------
      1          6           0        0.000051   -0.884245    0.000066
      2          1           0        0.000069   -1.965396    0.000000
      3          6           0        1.199325   -0.193540    0.000054
      4          6           0        1.216366    1.235897    0.000105
      5          7           0        2.426282   -0.956559   -0.000061
      6          8           0        2.371659   -2.172720    0.000304
      7          8           0        2.334607    1.942631    0.000180
      8          1           0        3.076459    1.290325   -0.000223
      9          6           0       -0.000014    1.912743    0.000157
     10          6           0       -1.216396    1.235850    0.000074
     11          6           0       -1.199256   -0.193584    0.000126
     12          8           0       -2.334745    1.942370   -0.000055
     13          8           0        3.503228   -0.325899   -0.000565
     14          1           0       -0.000068    2.994953    0.000184
     15          7           0       -2.426200   -0.956523   -0.000029
     16          8           0       -2.371723   -2.172684    0.000133
     17          8           0       -3.503141   -0.325766   -0.000336
     18          1           0       -3.076576    1.289499   -0.000102
 ---------------------------------------------------------------------

 SCF Done:  E(RHF) =  -787.722684623     A.U. after    7 cycles

 The electronic state is 1-A.
 Alpha  occ. eigenvalues --  -20.63811 -20.63807 -20.63030 -20.63027 -20.62970
 Alpha  occ. eigenvalues --  -20.62967 -15.89091 -15.89089 -11.39170 -11.39169
 Alpha  occ. eigenvalues --  -11.33531 -11.33496 -11.33270 -11.27078  -1.63795
 Alpha  occ. eigenvalues --   -1.63766  -1.47127  -1.46860  -1.42632  -1.42578
 Alpha  occ. eigenvalues --   -1.23655  -1.15096  -1.11032  -1.01568  -0.97452
 Alpha  occ. eigenvalues --   -0.89793  -0.89298  -0.83512  -0.80156  -0.79741
 Alpha  occ. eigenvalues --   -0.77468  -0.75891  -0.75506  -0.75358  -0.73551
 Alpha  occ. eigenvalues --   -0.69246  -0.67890  -0.65838  -0.65293  -0.62491
 Alpha  occ. eigenvalues --   -0.61050  -0.58872  -0.53520  -0.53349  -0.53093
 Alpha  occ. eigenvalues --   -0.52611  -0.52041  -0.49479  -0.49266  -0.39149
 Alpha  occ. eigenvalues --   -0.39043
 Alpha virt. eigenvalues --    0.00285   0.02332   0.03577   0.04109   0.04402
 Alpha virt. eigenvalues --    0.05341   0.05978   0.06315   0.07139   0.07218
 Alpha virt. eigenvalues --    0.07262   0.08428   0.08650   0.09183   0.09204

 Mulliken charges:
               1
     1  C   -0.184162
     2  H    0.300592
     3  C    0.111172
     4  C    0.251535
     5  N    0.529885
     6  O   -0.414242
     7  O   -0.575222
     8  H    0.446932
     9  C   -0.139390
    10  C    0.251623
    11  C    0.111167
    12  O   -0.575260
    13  O   -0.470782
    14  H    0.264336
    15  N    0.529871
    16  O   -0.414190
    17  O   -0.470793
    18  H    0.446928
 Sum of Mulliken charges =  -0.00000

 Dipole moment (field-independent basis, Debye):
    X=              0.0001    Y=              1.9133    Z=              0.0000  Tot=              1.9133
 Quadrupole moment (field-independent basis, Debye-Ang):
   XX=            -95.9997   YY=            -87.3104   ZZ=            -77.3249
   XY=              0.0063   XZ=             -0.0010   YZ=              0.0007

 Normal termination of Gaussian 09 at Fri Aug 27 19:53:46 2021.
