 Gaussian 09, Revision E.01,
 Gaussian 09:  ES64L-G09RevE.01 30-Nov-2015

 ----------------
 #P G4 OPT=calcfc
 ----------------

 ------
 ZELQOW
 ------
 Symbolic Z-matrix:
 Charge =  0 Multiplicity = 1

 SCF Done:  E(RB3LYP) =  -616.440084408     A.U. after   16 cycles
 SCF Done:  E(RB3LYP) =  -616.536140707     A.U. after   14 cycles
 SCF Done:  E(RB3LYP) =  -616.589671438     A.U. after   15 cycles
 SCF Done:  E(RB3LYP) =  -616.593220994     A.U. after   14 cycles
 SCF Done:  E(RB3LYP) =  -616.593353359     A.U. after   14 cycles
 SCF Done:  E(RB3LYP) =  -616.593548142     A.U. after   14 cycles
 SCF Done:  E(RB3LYP) =  -616.593730568     A.U. after   14 cycles
 SCF Done:  E(RB3LYP) =  -616.503332213     A.U. after   14 cycles
 SCF Done:  E(RB3LYP) =  -616.526249607     A.U. after   13 cycles
 SCF Done:  E(RB3LYP) =  -616.545313785     A.U. after   13 cycles
 SCF Done:  E(RB3LYP) =  -616.594361228     A.U. after    8 cycles
 SCF Done:  E(RB3LYP) =  -616.594361443     A.U. after    8 cycles
 SCF Done:  E(RB3LYP) =  -616.594361514     A.U. after    7 cycles
 Optimization completed.
    -- Stationary point found.
 Normal termination of Gaussian 09 at Thu Aug 26 11:31:19 2021.

 ----------------------------------------------------------
 #P Geom=AllCheck Guess=TCheck SCRF=Check B3LYP/GTBas3 Freq
 ----------------------------------------------------------

 Structure from the checkpoint file:  "/public/home/users/caep010/.cache/gau_scr/Gau-137931.chk"
 ------
 ZELQOW
 ------
 Charge =  0 Multiplicity = 1

 SCF Done:  E(RB3LYP) =  -616.594361514     A.U. after    1 cycles

  Exact polarizability: 111.813  -2.979  99.858  -0.046  -0.413  40.728
 Approx polarizability: 178.622  -9.440 210.368  -0.256  -0.783  64.633

                      1                      2                      3
                      A                      A                      A
 Frequencies --     43.7490                73.6152                95.4374
 Red. masses --      1.0587                 9.7333                 3.8026
 Frc consts  --      0.0012                 0.0311                 0.0204
 IR Inten    --      0.0897                 0.0977                 1.9707

                      4                      5                      6
                      A                      A                      A
 Frequencies --    143.7230               211.9120               244.0996
 Red. masses --      7.4000                 7.5090                 6.2333
 Frc consts  --      0.0901                 0.1987                 0.2188
 IR Inten    --      2.1520                 0.2864                 3.1284

                      7                      8                      9
                      A                      A                      A
 Frequencies --    299.6783               356.7185               371.2612
 Red. masses --      2.8962                 4.8102                 5.4997
 Frc consts  --      0.1532                 0.3606                 0.4466
 IR Inten    --     11.8389                 2.1775                24.1304

                     10                     11                     12
                      A                      A                      A
 Frequencies --    414.2846               418.9594               440.8526
 Red. masses --      3.6538                 1.7522                 8.0404
 Frc consts  --      0.3695                 0.1812                 0.9207
 IR Inten    --     27.0671               167.1658                 2.7988

                     13                     14                     15
                      A                      A                      A
 Frequencies --    497.5738               627.6305               632.2094
 Red. masses --      1.2004                 5.9638                 7.4181
 Frc consts  --      0.1751                 1.3842                 1.7469
 IR Inten    --     70.0100                 8.3169                 4.0502

                     16                     17                     18
                      A                      A                      A
 Frequencies --    656.9226               714.5749               731.2117
 Red. masses --      4.5652                12.7992                 7.6150
 Frc consts  --      1.1608                 3.8506                 2.3989
 IR Inten    --     10.0911                 3.5393                 7.8876

                     19                     20                     21
                      A                      A                      A
 Frequencies --    780.9593               835.3953               961.2946
 Red. masses --     13.4359                12.3947                 6.7751
 Frc consts  --      4.8281                 5.0965                 3.6887
 IR Inten    --     17.9876                50.9856                 0.1411

                     22                     23                     24
                      A                      A                      A
 Frequencies --   1031.6523              1127.0278              1148.4803
 Red. masses --      2.1851                 1.9063                 1.2720
 Frc consts  --      1.3702                 1.4266                 0.9885
 IR Inten    --      3.5798                59.1774                 0.0138

                     25                     26                     27
                      A                      A                      A
 Frequencies --   1187.5365              1276.2611              1306.4731
 Red. masses --      6.0046                 4.6030                 4.5776
 Frc consts  --      4.9892                 4.4175                 4.6035
 IR Inten    --     62.2735                19.9886                 6.9725

                     28                     29                     30
                      A                      A                      A
 Frequencies --   1376.0200              1389.2358              1444.3897
 Red. masses --      6.4018                10.1956                 1.2986
 Frc consts  --      7.1417                11.5935                 1.5962
 IR Inten    --    219.8955               209.0171                 4.2049

                     31                     32                     33
                      A                      A                      A
 Frequencies --   1481.1833              1503.4762              1521.0318
 Red. masses --      1.0416                 1.1626                 3.6663
 Frc consts  --      1.3464                 1.5484                 4.9975
 IR Inten    --      9.0041                14.0855               101.7562

                     34                     35                     36
                      A                      A                      A
 Frequencies --   1542.0591              1571.5085              1628.8836
 Red. masses --      3.5226                 2.9264                 4.0589
 Frc consts  --      4.9353                 4.2581                 6.3451
 IR Inten    --     55.7632                73.5085               161.2396

                     37                     38                     39
                      A                      A                      A
 Frequencies --   1661.6930              3058.7393              3129.7816
 Red. masses --      4.4731                 1.0325                 1.1056
 Frc consts  --      7.2771                 5.6917                 6.3809
 IR Inten    --    464.1226                26.1416                 6.3881

                     40                     41                     42
                      A                      A                      A
 Frequencies --   3175.4106              3581.6661              3710.8049
 Red. masses --      1.1016                 1.0449                 1.1028
 Frc consts  --      6.5446                 7.8973                 8.9475
 IR Inten    --      0.8638                61.1364                75.0081

 - Thermochemistry -
 -------------------
 Temperature   298.150 Kelvin.  Pressure   1.00000 Atm.
 Atom     1 has atomic number  6 and mass  12.00000

 Molecular mass:   159.03924 amu.
 Principal axes and moments of inertia in atomic units:
                           1         2         3
     Eigenvalues --  1004.185281667.171522658.27869
           X            0.99909  -0.04274   0.00034
           Y            0.04274   0.99908  -0.00328
           Z           -0.00020   0.00329   0.99999
 This molecule is an asymmetric top.
 Rotational symmetry number  1.
 Warning -- assumption of classical behavior for rotation
           may cause significant error
 Rotational temperatures (Kelvin)      0.08625     0.05195     0.03258
 Rotational constants (GHZ):           1.79722     1.08252     0.67891
 Zero-point vibrational energy     289528.5 (Joules/Mol)
                                   69.19896 (Kcal/Mol)
 Warning -- explicit consideration of  13 degrees of freedom as
           vibrations may cause significant error
 Vibrational temperatures:     62.94   105.92   137.31   206.79   304.89
          (Kelvin)            351.20   431.17   513.24   534.16   596.06
                              602.79   634.29   715.90   903.02   909.61
                              945.16  1028.11  1052.05  1123.62  1201.95
                             1383.09  1484.32  1621.54  1652.40  1708.60
                             1836.25  1879.72  1979.78  1998.80  2078.15
                             2131.09  2163.16  2188.42  2218.68  2261.05
                             2343.60  2390.80  4400.84  4503.05  4568.70
                             5153.21  5339.01

 Zero-point correction=                           0.110276 (Hartree/Particle)
 Thermal correction to Energy=                    0.120364
 Thermal correction to Enthalpy=                  0.121308
 Thermal correction to Gibbs Free Energy=         0.073898
 Sum of electronic and zero-point Energies=           -616.484086
 Sum of electronic and thermal Energies=              -616.473997
 Sum of electronic and thermal Enthalpies=            -616.473053
 Sum of electronic and thermal Free Energies=         -616.520464

                     E (Thermal)             CV                S
                      KCal/Mol        Cal/Mol-Kelvin    Cal/Mol-Kelvin
 Total                   75.530             35.872             99.784
 Electronic               0.000              0.000              0.000
 Translational            0.889              2.981             41.101
 Rotational               0.889              2.981             29.877
 Vibrational             73.752             29.910             28.806
 Vibration     1          0.595              1.980              5.082
 Vibration     2          0.599              1.966              4.054
 Vibration     3          0.603              1.952              3.545
 Vibration     4          0.616              1.909              2.754
 Vibration     5          0.643              1.823              2.027
 Vibration     6          0.659              1.773              1.773
 Vibration     7          0.692              1.674              1.419
 Vibration     8          0.732              1.561              1.136
 Vibration     9          0.743              1.531              1.075
 Vibration    10          0.778              1.439              0.912
 Vibration    11          0.782              1.429              0.896
 Vibration    12          0.801              1.381              0.824
 Vibration    13          0.853              1.255              0.664

 Optimization completed.
    -- Stationary point found.
 Normal termination of Gaussian 09 at Thu Aug 26 11:33:02 2021.

 -----------------------------------------------------------------
 #P Geom=AllCheck Guess=TCheck SCRF=Check CCSD(T,E4T,FrzG4)/GTBas1
 -----------------------------------------------------------------

 Structure from the checkpoint file:  "/public/home/users/caep010/.cache/gau_scr/Gau-137931.chk"
 ------
 ZELQOW
 ------
 Charge =  0 Multiplicity = 1

 SCF Done:  E(RHF) =  -613.058387847     A.U. after   16 cycles
 E2 =    -0.1788170504D+01 EUMP2 =    -0.61484655835146D+03
 CCSD(T)
 CCSD(T)= -0.61492504944D+03
 535793\CCSD=-614.8465945\CCSD(T)=-614.9250494\RMSD=6.075e-09\PG=C01 [X
 Normal termination of Gaussian 09 at Thu Aug 26 12:11:03 2021.

 ---------------------------------------------------------
 #P Geom=AllCheck Guess=TCheck SCRF=Check MP4=FrzG4/GTBas2
 ---------------------------------------------------------

 Structure from the checkpoint file:  "/public/home/users/caep010/.cache/gau_scr/Gau-137931.chk"
 ------
 ZELQOW
 ------
 Charge =  0 Multiplicity = 1

 SCF Done:  E(RHF) =  -613.077031068     A.U. after   15 cycles
 E2 =    -0.1813320517D+01 EUMP2 =    -0.61489035158535D+03
 Normal termination of Gaussian 09 at Thu Aug 26 12:23:03 2021.

 ---------------------------------------------------------
 #P Geom=AllCheck Guess=TCheck SCRF=Check MP4=FrzG4/GTBas3
 ---------------------------------------------------------

 Structure from the checkpoint file:  "/public/home/users/caep010/.cache/gau_scr/Gau-137931.chk"
 ------
 ZELQOW
 ------
 Charge =  0 Multiplicity = 1

 SCF Done:  E(RHF) =  -613.127585843     A.U. after   13 cycles
 E2 =    -0.2128781228D+01 EUMP2 =    -0.61525636707108D+03
 Normal termination of Gaussian 09 at Thu Aug 26 13:35:54 2021.

 -----------------------------------------------------------
 #P Geom=AllCheck Guess=TCheck SCRF=Check MP2=Full/GTLargeXP
 -----------------------------------------------------------

 Structure from the checkpoint file:  "/public/home/users/caep010/.cache/gau_scr/Gau-137931.chk"
 ------
 ZELQOW
 ------
 Charge =  0 Multiplicity = 1

 SCF Done:  E(RHF) =  -613.285971398     A.U. after   14 cycles
 E2 =    -0.2755200694D+01 EUMP2 =    -0.61604117209152D+03
 Normal termination of Gaussian 09 at Thu Aug 26 13:47:26 2021.
 SCF Done:  E(RHF) =  -613.335089683     A.U. after   11 cycles
 Normal termination of Gaussian 09 at Thu Aug 26 13:51:55 2021.

                         Standard orientation:
 ---------------------------------------------------------------------
 Center     Atomic      Atomic             Coordinates (Angstroms)
 Number     Number       Type             X           Y           Z
 ---------------------------------------------------------------------
      1          6           0       -0.466383   -0.055249    0.019656
      2          7           0        0.717244   -0.758863    0.007496
      3          7           0        1.680316    0.191708   -0.005253
      4          8           0        0.957021   -1.975340    0.001991
      5          7           0       -1.744222   -0.654647   -0.003237
      6          6           0        3.083182   -0.146846   -0.021355
      7          1           0        3.573078    0.274300    0.859637
      8          7           0        1.194973    1.454596   -0.001591
      9          6           0       -0.126714    1.320104    0.017494
     10          7           0       -0.983345    2.369581    0.079194
     11          8           0       -1.847733   -1.870103    0.027792
     12          1           0        3.548585    0.250383   -0.926690
     13          8           0       -2.696856    0.140410   -0.057983
     14          1           0       -1.943490    2.156359   -0.144119
     15          1           0        3.143619   -1.234791   -0.008500
     16          1           0       -0.616528    3.269324   -0.185767
 ---------------------------------------------------------------------

 SCF Done:  E(RHF) =  -613.344819274     A.U. after    8 cycles

 The electronic state is 1-A.
 Alpha  occ. eigenvalues --  -20.61577 -20.60423 -20.58298 -15.87512 -15.83161
 Alpha  occ. eigenvalues --  -15.72234 -15.62495 -15.60030 -11.36642 -11.35110
 Alpha  occ. eigenvalues --  -11.30432  -1.61855  -1.56513  -1.41851  -1.40632
 Alpha  occ. eigenvalues --   -1.27494  -1.20085  -1.16019  -1.07210  -0.95579
 Alpha  occ. eigenvalues --   -0.89671  -0.85606  -0.79228  -0.77219  -0.75831
 Alpha  occ. eigenvalues --   -0.73610  -0.72542  -0.72362  -0.68485  -0.65753
 Alpha  occ. eigenvalues --   -0.62934  -0.60375  -0.58914  -0.55906  -0.51374
 Alpha  occ. eigenvalues --   -0.50377  -0.49991  -0.47459  -0.46696  -0.39866
 Alpha  occ. eigenvalues --   -0.35220
 Alpha virt. eigenvalues --    0.02653   0.03124   0.03224   0.04494   0.04781
 Alpha virt. eigenvalues --    0.05976   0.06530   0.06733   0.07065   0.07472
 Alpha virt. eigenvalues --    0.08765   0.10226   0.10973   0.11030   0.11965

 Mulliken charges:
               1
     1  C    0.240434
     2  N    0.309305
     3  N    0.292500
     4  O   -0.520629
     5  N    0.464022
     6  C   -0.578436
     7  H    0.211618
     8  N   -0.467241
     9  C    0.421736
    10  N   -0.715158
    11  O   -0.374733
    12  H    0.209780
    13  O   -0.463665
    14  H    0.362879
    15  H    0.266320
    16  H    0.341267
 Sum of Mulliken charges =  -0.00000

 Dipole moment (field-independent basis, Debye):
    X=              3.7807    Y=              4.0875    Z=             -0.6750  Tot=              5.6086
 Quadrupole moment (field-independent basis, Debye-Ang):
   XX=            -60.6236   YY=            -67.4607   ZZ=            -61.9942
   XY=             -6.2761   XZ=              0.7212   YZ=             -2.1312

 Normal termination of Gaussian 09 at Thu Aug 26 14:20:11 2021.
