 Gaussian 09, Revision E.01,
 Gaussian 09:  ES64L-G09RevE.01 30-Nov-2015

 ---------------------------------------------
 #P OPT Freq M062X/6-31+G(2df,p) INT=UltraFine
 ---------------------------------------------

 ----------------------
 M062X6-31xG2dfp.TANHAR
 ----------------------
 Symbolic Z-matrix:
 Charge =  0 Multiplicity = 1

 SCF Done:  E(RM062X) =  -644.248665767     A.U. after   17 cycles
 SCF Done:  E(RM062X) =  -644.248647294     A.U. after   14 cycles
 SCF Done:  E(RM062X) =  -644.248663821     A.U. after   14 cycles
 SCF Done:  E(RM062X) =  -644.248668363     A.U. after   13 cycles
 SCF Done:  E(RM062X) =  -644.248668600     A.U. after   12 cycles
 SCF Done:  E(RM062X) =  -644.248668671     A.U. after   11 cycles
 Optimization completed.
    -- Stationary point found.
 Normal termination of Gaussian 09 at Thu Oct  7 16:15:10 2021.

 ----------------------------------------------------------------------
 #P Geom=AllCheck Guess=TCheck SCRF=Check GenChk RM062X/6-31+G(2df,p) F
 req
 ----------------------------------------------------------------------

 Structure from the checkpoint file:  "/public/home/users/caep010/.cache/gau_scr/Gau-107457.chk"
 ----------------------
 M062X6-31xG2dfp.TANHAR
 ----------------------
 Charge =  0 Multiplicity = 1

                         Standard orientation:
 ---------------------------------------------------------------------
 Center     Atomic      Atomic             Coordinates (Angstroms)
 Number     Number       Type             X           Y           Z
 ---------------------------------------------------------------------
      1          6           0       -1.580588   -0.100154   -0.469774
      2          6           0       -0.180655   -0.499950   -0.750560
      3          6           0        1.156533   -0.181497   -0.317743
      4          6           0        1.343608    0.800747    0.656667
      5          6           0        2.627832    1.115345    1.079712
      6          6           0        3.720488    0.450997    0.532155
      7          1           0        4.722990    0.697222    0.863665
      8          6           0        3.534500   -0.530108   -0.440303
      9          7           0       -2.182541   -0.600924    0.830236
     10          8           0       -1.860269   -1.711212    1.177481
     11          8           0       -2.920755    0.150132    1.418796
     12          1           0        0.482110    1.312444    1.074043
     13          6           0        2.255157   -0.848894   -0.867507
     14          1           0        2.096300   -1.611225   -1.622179
     15          6           0       -2.121846    1.192719   -0.847215
     16          7           0       -2.491118    2.215733   -1.221784
     17          6           0       -1.096882   -1.105708   -1.433915
     18          1           0       -1.450999   -1.806860   -2.166505
     19          1           0        2.775328    1.877570    1.835561
     20          1           0        4.389192   -1.045155   -0.863068
 ---------------------------------------------------------------------

 SCF Done:  E(RM062X) =  -644.248668671     A.U. after    1 cycles

 The electronic state is 1-A.
 Alpha  occ. eigenvalues --  -19.68850 -19.68730 -15.01657 -14.78037 -10.67843
 Alpha  occ. eigenvalues --  -10.63641 -10.62611 -10.60734 -10.60232 -10.59256
 Alpha  occ. eigenvalues --  -10.59158 -10.58837 -10.58586 -10.58468  -1.38805
 Alpha  occ. eigenvalues --   -1.20426  -1.07570  -1.02340  -0.99909  -0.89907
 Alpha  occ. eigenvalues --   -0.88039  -0.86501  -0.75455  -0.74370  -0.72452
 Alpha  occ. eigenvalues --   -0.68699  -0.66957  -0.65140  -0.63816  -0.61327
 Alpha  occ. eigenvalues --   -0.59067  -0.56273  -0.54209  -0.52260  -0.50573
 Alpha  occ. eigenvalues --   -0.49114  -0.47361  -0.45718  -0.44710  -0.44342
 Alpha  occ. eigenvalues --   -0.43674  -0.42051  -0.39706  -0.39268  -0.38618
 Alpha  occ. eigenvalues --   -0.38220  -0.34257  -0.32750
 Alpha virt. eigenvalues --   -0.05598  -0.02999  -0.01171  -0.00226   0.01090
 Alpha virt. eigenvalues --    0.01682   0.02807   0.03006   0.03376   0.03918
 Alpha virt. eigenvalues --    0.04704   0.05152   0.05717   0.06036   0.06111

 Mulliken charges:
               1
     1  C    0.454601
     2  C    0.358292
     3  C    0.812485
     4  C   -0.303016
     5  C   -0.444682
     6  C   -0.178089
     7  H    0.177636
     8  C   -0.205287
     9  N    0.002928
    10  O   -0.130233
    11  O   -0.139127
    12  H    0.193071
    13  C   -0.374984
    14  H    0.180559
    15  C   -0.271245
    16  N   -0.289724
    17  C   -0.450524
    18  H    0.247548
    19  H    0.181440
    20  H    0.178350
 Sum of Mulliken charges =  -0.00000

 Dipole moment (field-independent basis, Debye):
    X=              5.6451    Y=             -2.3273    Z=             -1.9385  Tot=              6.4064
 Quadrupole moment (field-independent basis, Debye-Ang):
   XX=            -78.5949   YY=            -86.0970   ZZ=            -79.6607
   XY=              7.6452   XZ=              5.3999   YZ=             13.4221

  Exact polarizability: 171.830  -6.449 119.537   8.296  16.439 106.994
 Approx polarizability: 198.519 -11.870 172.716  10.670  28.061 143.824

                      1                      2                      3
                      A                      A                      A
 Frequencies --     37.6978                41.3327                53.9299
 Red. masses --      4.5440                11.3224                 8.8678
 Frc consts  --      0.0038                 0.0114                 0.0152
 IR Inten    --      0.3265                 0.0528                 0.0773

                      4                      5                      6
                      A                      A                      A
 Frequencies --     72.9262               157.2718               177.5404
 Red. masses --      7.5908                 9.6490                 5.4699
 Frc consts  --      0.0238                 0.1406                 0.1016
 IR Inten    --      3.6993                 4.8907                 1.2739

                      7                      8                      9
                      A                      A                      A
 Frequencies --    220.9660               287.3600               357.7134
 Red. masses --      5.7304                 4.2573                 8.3969
 Frc consts  --      0.1648                 0.2071                 0.6331
 IR Inten    --      2.7050                 2.0153                 5.9376

                     10                     11                     12
                      A                      A                      A
 Frequencies --    408.7479               416.3305               452.3402
 Red. masses --      3.2628                 3.5851                 6.6821
 Frc consts  --      0.3212                 0.3661                 0.8056
 IR Inten    --      3.0094                 4.6349                 6.1493

                     13                     14                     15
                      A                      A                      A
 Frequencies --    479.7674               524.5638               566.7811
 Red. masses --      5.9619                10.2174                 4.2621
 Frc consts  --      0.8085                 1.6565                 0.8067
 IR Inten    --      0.4401                 2.7379                 2.5845

                     16                     17                     18
                      A                      A                      A
 Frequencies --    597.1447               619.2104               676.7879
 Red. masses --      4.9688                 6.3947                 8.4516
 Frc consts  --      1.0439                 1.4446                 2.2808
 IR Inten    --      4.2887                 0.4399                14.9825

                     19                     20                     21
                      A                      A                      A
 Frequencies --    709.2116               720.4357               765.4294
 Red. masses --      1.9348                 5.8056                 1.4575
 Frc consts  --      0.5734                 1.7754                 0.5031
 IR Inten    --     23.3671                 0.7066                78.7589

                     22                     23                     24
                      A                      A                      A
 Frequencies --    808.1374               819.4076               871.9920
 Red. masses --      2.1077                 6.3563                10.4372
 Frc consts  --      0.8110                 2.5145                 4.6759
 IR Inten    --      7.2683                 7.9960                42.4526

                     25                     26                     27
                      A                      A                      A
 Frequencies --    877.1674               967.2028              1005.2797
 Red. masses --      1.2716                 1.4165                 2.2436
 Frc consts  --      0.5764                 0.7807                 1.3359
 IR Inten    --      0.9283                 1.5344                 3.9436

                     28                     29                     30
                      A                      A                      A
 Frequencies --   1007.3709              1013.0010              1018.0561
 Red. masses --      5.6689                 1.4040                 2.8595
 Frc consts  --      3.3894                 0.8489                 1.7461
 IR Inten    --     10.4703                 0.3357                 5.6378

                     31                     32                     33
                      A                      A                      A
 Frequencies --   1035.6598              1040.6716              1059.9785
 Red. masses --      6.5943                 1.3405                 2.0446
 Frc consts  --      4.1673                 0.8553                 1.3535
 IR Inten    --     23.0288                 0.0134                 0.7243

                     34                     35                     36
                      A                      A                      A
 Frequencies --   1111.4737              1178.4640              1197.8827
 Red. masses --      1.4896                 1.1159                 1.1216
 Frc consts  --      1.0842                 0.9131                 0.9483
 IR Inten    --      4.2852                 0.4541                 5.9845

                     37                     38                     39
                      A                      A                      A
 Frequencies --   1245.9119              1261.5581              1324.6591
 Red. masses --      4.4712                 8.2749                 2.9374
 Frc consts  --      4.0893                 7.7594                 3.0369
 IR Inten    --     22.2983                26.6877                 1.4754

                     40                     41                     42
                      A                      A                      A
 Frequencies --   1345.5146              1477.9451              1484.4774
 Red. masses --      1.7803                 5.7235                 3.1410
 Frc consts  --      1.8989                 7.3660                 4.0781
 IR Inten    --      3.7348               107.2105                24.6183

                     43                     44                     45
                      A                      A                      A
 Frequencies --   1525.0663              1644.7156              1666.6764
 Red. masses --      2.3480                 6.1476                 6.0813
 Frc consts  --      3.2175                 9.7980                 9.9528
 IR Inten    --      4.1746                 0.9679                 5.9409

                     46                     47                     48
                      A                      A                      A
 Frequencies --   1728.7201              1906.2324              2422.7587
 Red. masses --     14.5645                 7.9033                12.6850
 Frc consts  --     25.6445                16.9204                43.8695
 IR Inten    --    341.2633                35.5539                 5.7375

                     49                     50                     51
                      A                      A                      A
 Frequencies --   3202.6092              3207.8903              3215.1195
 Red. masses --      1.0880                 1.0874                 1.0912
 Frc consts  --      6.5746                 6.5931                 6.6456
 IR Inten    --      0.9967                 0.0399                 1.9958

                     52                     53                     54
                      A                      A                      A
 Frequencies --   3226.1023              3233.4372              3347.1665
 Red. masses --      1.0952                 1.0992                 1.1220
 Frc consts  --      6.7161                 6.7711                 7.4060
 IR Inten    --      7.3134                 6.2521                36.9379

 - Thermochemistry -
 -------------------
 Temperature   298.150 Kelvin.  Pressure   1.00000 Atm.
 Atom     1 has atomic number  6 and mass  12.00000

 Molecular mass:   186.04293 amu.
 Principal axes and moments of inertia in atomic units:
                           1         2         3
     Eigenvalues --  1365.098914174.183624314.96150
           X            0.99997   0.00205   0.00783
           Y           -0.00463   0.93801   0.34657
           Z           -0.00663  -0.34659   0.93799
 This molecule is an asymmetric top.
 Rotational symmetry number  1.
 Warning -- assumption of classical behavior for rotation
           may cause significant error
 Rotational temperatures (Kelvin)      0.06345     0.02075     0.02007
 Rotational constants (GHZ):           1.32206     0.43236     0.41825
 Zero-point vibrational energy     369776.4 (Joules/Mol)
                                   88.37869 (Kcal/Mol)
 Warning -- explicit consideration of  17 degrees of freedom as
           vibrations may cause significant error
 Vibrational temperatures:     54.24    59.47    77.59   104.92   226.28
          (Kelvin)            255.44   317.92   413.45   514.67   588.10
                              599.01   650.82   690.28   754.73   815.47
                              859.16   890.90   973.75  1020.40  1036.54
                             1101.28  1162.73  1178.94  1254.60  1262.05
                             1391.59  1446.37  1449.38  1457.48  1464.75
                             1490.08  1497.29  1525.07  1599.16  1695.54
                             1723.48  1792.59  1815.10  1905.89  1935.89
                             2126.43  2135.83  2194.23  2366.38  2397.97
                             2487.24  2742.64  3485.81  4607.83  4615.43
                             4625.83  4641.64  4652.19  4815.82

 Zero-point correction=                           0.140840 (Hartree/Particle)
 Thermal correction to Energy=                    0.152437
 Thermal correction to Enthalpy=                  0.153381
 Thermal correction to Gibbs Free Energy=         0.101047
 Sum of electronic and zero-point Energies=           -644.107828
 Sum of electronic and thermal Energies=              -644.096232
 Sum of electronic and thermal Enthalpies=            -644.095288
 Sum of electronic and thermal Free Energies=         -644.147622

                     E (Thermal)             CV                S
                      KCal/Mol        Cal/Mol-Kelvin    Cal/Mol-Kelvin
 Total                   95.656             42.614            110.147
 Electronic               0.000              0.000              0.000
 Translational            0.889              2.981             41.569
 Rotational               0.889              2.981             31.575
 Vibrational             93.878             36.653             37.003
 Vibration     1          0.594              1.982              5.377
 Vibration     2          0.594              1.981              5.194
 Vibration     3          0.596              1.976              4.668
 Vibration     4          0.599              1.967              4.073
 Vibration     5          0.621              1.895              2.582
 Vibration     6          0.628              1.870              2.354
 Vibration     7          0.648              1.809              1.951
 Vibration     8          0.685              1.697              1.489
 Vibration     9          0.733              1.559              1.132
 Vibration    10          0.773              1.451              0.931
 Vibration    11          0.780              1.435              0.905
 Vibration    12          0.811              1.356              0.789
 Vibration    13          0.836              1.295              0.711
 Vibration    14          0.880              1.196              0.599
 Vibration    15          0.923              1.103              0.510
 Vibration    16          0.955              1.038              0.455
 Vibration    17          0.979              0.991              0.418

 Normal termination of Gaussian 09 at Thu Oct  7 16:25:33 2021.
