 Gaussian 09, Revision E.01,
 Gaussian 09:  ES64L-G09RevE.01 30-Nov-2015

 ------------------------------------------
 #P OPT Freq B3LYP/6-31G(2df,p) POP=NBORead
 ------------------------------------------

 -
 N
 -
 Symbolic Z-matrix:
 Charge =  0 Multiplicity = 4

 SCF Done:  E(UB3LYP) =  -54.5838614588     A.U. after    8 cycles
 Optimization completed.
    -- Stationary point found.
 Normal termination of Gaussian 09 at Mon Oct 17 17:10:51 2022.

 ----------------------------------------------------------------------
 #P Geom=AllCheck Guess=TCheck SCRF=Check GenChk UB3LYP/6-31G(2df,p) Fr
 eq
 ----------------------------------------------------------------------

 Structure from the checkpoint file:  "B3LYP6-31G2dfp.N.chk"
 -
 N
 -
 Charge =  0 Multiplicity = 4

                         Standard orientation:
 ---------------------------------------------------------------------
 Center     Atomic      Atomic             Coordinates (Angstroms)
 Number     Number       Type             X           Y           Z
 ---------------------------------------------------------------------
      1          7           0        0.000000    0.000000    0.000000
 ---------------------------------------------------------------------

 SCF Done:  E(UB3LYP) =  -54.5838614588     A.U. after    1 cycles

 The electronic state is 4-A1G.
 Alpha  occ. eigenvalues --  -14.44175  -0.80440  -0.34797  -0.34797  -0.34797
 Alpha virt. eigenvalues --    0.62750   0.62867   0.62867   0.62867   0.85110
 Alpha virt. eigenvalues --    0.85110   0.85110   0.85110   0.85110   2.09839
 Alpha virt. eigenvalues --    3.48858   3.48858   3.48858   3.48858   3.48858

  Beta  occ. eigenvalues --  -14.38687  -0.60797
  Beta virt. eigenvalues --   -0.09440  -0.09440  -0.09440   0.70423   0.73468
  Beta virt. eigenvalues --    0.73468   0.73468   0.93621   0.93621   0.93621
  Beta virt. eigenvalues --    0.93621   0.93621   2.14485   3.60998   3.60998

 Mulliken charges and spin densities:
               1          2
     1  N    0.000000   3.000000
 Sum of Mulliken charges =   0.00000   3.00000

 Dipole moment (field-independent basis, Debye):
    X=              0.0000    Y=              0.0000    Z=              0.0000  Tot=              0.0000
 Quadrupole moment (field-independent basis, Debye-Ang):
   XX=             -5.3470   YY=             -5.3470   ZZ=             -5.3470
   XY=             -0.0000   XZ=             -0.0000   YZ=              0.0000

  Exact polarizability:   4.886  -0.000   4.886  -0.000   0.000   4.886
 Approx polarizability:   5.816  -0.000   5.816  -0.000  -0.000   5.816

 - Thermochemistry -
 -------------------
 Temperature   298.150 Kelvin.  Pressure   1.00000 Atm.
 Atom     1 has atomic number  7 and mass  14.00307
 Molecular mass:    14.00307 amu.
 Zero-point vibrational energy          0.0 (Joules/Mol)
                                    0.00000 (Kcal/Mol)
 Vibrational temperatures:
          (Kelvin)

 Zero-point correction=                           0.000000 (Hartree/Particle)
 Thermal correction to Energy=                    0.001416
 Thermal correction to Enthalpy=                  0.002360
 Thermal correction to Gibbs Free Energy=        -0.015036
 Sum of electronic and zero-point Energies=            -54.583861
 Sum of electronic and thermal Energies=               -54.582445
 Sum of electronic and thermal Enthalpies=             -54.581501
 Sum of electronic and thermal Free Energies=          -54.598897

                     E (Thermal)             CV                S
                      KCal/Mol        Cal/Mol-Kelvin    Cal/Mol-Kelvin
 Total                    0.889              2.981             36.613
 Electronic               0.000              0.000              2.755
 Translational            0.889              2.981             33.858
 Rotational               0.000              0.000              0.000
 Vibrational              0.000              0.000              0.000

 Optimization completed.
    -- Stationary point found.
 Normal termination of Gaussian 09 at Mon Oct 17 17:11:01 2022.
