 Gaussian 09, Revision E.01,
 Gaussian 09:  ES64L-G09RevE.01 30-Nov-2015

 ------------------------------------------
 #P OPT Freq B3LYP/6-31G(2df,p) POP=NBORead
 ------------------------------------------

 -
 C
 -
 Symbolic Z-matrix:
 Charge =  0 Multiplicity = 3

 SCF Done:  E(UB3LYP) =  -37.8467716523     A.U. after    8 cycles
 Optimization completed.
    -- Stationary point found.
 Normal termination of Gaussian 09 at Mon Oct 17 17:04:42 2022.

 ----------------------------------------------------------------------
 #P Geom=AllCheck Guess=TCheck SCRF=Check GenChk UB3LYP/6-31G(2df,p) Fr
 eq
 ----------------------------------------------------------------------

 Structure from the checkpoint file:  "B3LYP6-31G2dfp.C.chk"
 -
 C
 -
 Charge =  0 Multiplicity = 3

                         Standard orientation:
 ---------------------------------------------------------------------
 Center     Atomic      Atomic             Coordinates (Angstroms)
 Number     Number       Type             X           Y           Z
 ---------------------------------------------------------------------
      1          6           0        0.000000    0.000000    0.000000
 ---------------------------------------------------------------------

 SCF Done:  E(UB3LYP) =  -37.8467716523     A.U. after    1 cycles

 Unable to determine electronic state:  an orbital has unidentified symmetry.
 Alpha  occ. eigenvalues --  -10.30228  -0.57815  -0.25418  -0.25418
 Alpha virt. eigenvalues --   -0.13941   0.45629   0.50957   0.50957   0.53563
 Alpha virt. eigenvalues --    0.81890   0.81890   0.82402   0.82402   0.83495
 Alpha virt. eigenvalues --    1.72160   2.77348   2.77348   2.77613   2.77613

  Beta  occ. eigenvalues --  -10.27535  -0.46691
  Beta virt. eigenvalues --   -0.10797  -0.05667  -0.05667   0.49528   0.55248
  Beta virt. eigenvalues --    0.59017   0.59017   0.87069   0.88173   0.88173
  Beta virt. eigenvalues --    0.91454   0.91454   1.77395   2.82842   2.83562

 Mulliken charges and spin densities:
               1          2
     1  C    0.000000   2.000000
 Sum of Mulliken charges =   0.00000   2.00000

 Dipole moment (field-independent basis, Debye):
    X=              0.0000    Y=              0.0000    Z=              0.0000  Tot=              0.0000
 Quadrupole moment (field-independent basis, Debye-Ang):
   XX=             -6.4634   YY=             -6.4634   ZZ=             -4.6848
   XY=              0.0000   XZ=              0.0000   YZ=             -0.0000

  Exact polarizability:   7.368  -0.000   7.368  -0.000  -0.000   7.717
 Approx polarizability:   8.104  -0.000   8.104  -0.000  -0.000  11.803

 - Thermochemistry -
 -------------------
 Temperature   298.150 Kelvin.  Pressure   1.00000 Atm.
 Atom     1 has atomic number  6 and mass  12.00000
 Molecular mass:    12.00000 amu.
 Zero-point vibrational energy          0.0 (Joules/Mol)
                                    0.00000 (Kcal/Mol)
 Vibrational temperatures:
          (Kelvin)

 Zero-point correction=                           0.000000 (Hartree/Particle)
 Thermal correction to Energy=                    0.001416
 Thermal correction to Enthalpy=                  0.002360
 Thermal correction to Gibbs Free Energy=        -0.014545
 Sum of electronic and zero-point Energies=            -37.846772
 Sum of electronic and thermal Energies=               -37.845355
 Sum of electronic and thermal Enthalpies=             -37.844411
 Sum of electronic and thermal Free Energies=          -37.861317

                     E (Thermal)             CV                S
                      KCal/Mol        Cal/Mol-Kelvin    Cal/Mol-Kelvin
 Total                    0.889              2.981             35.581
 Electronic               0.000              0.000              2.183
 Translational            0.889              2.981             33.398
 Rotational               0.000              0.000              0.000
 Vibrational              0.000              0.000              0.000

 Optimization completed.
    -- Stationary point found.
 Normal termination of Gaussian 09 at Mon Oct 17 17:04:51 2022.
