 Gaussian 09, Revision E.01,
 Gaussian 09:  ES64L-G09RevE.01 30-Nov-2015

 ------------------------------------------
 #P OPT Freq B3LYP/6-31G(2df,p) POP=NBORead
 ------------------------------------------

 -
 O
 -
 Symbolic Z-matrix:
 Charge =  0 Multiplicity = 3

 SCF Done:  E(UB3LYP) =  -75.0645794394     A.U. after   10 cycles
 Optimization completed.
    -- Stationary point found.
 Normal termination of Gaussian 09 at Mon Oct 17 17:08:17 2022.

 ----------------------------------------------------------------------
 #P Geom=AllCheck Guess=TCheck SCRF=Check GenChk UB3LYP/6-31G(2df,p) Fr
 eq
 ----------------------------------------------------------------------

 Structure from the checkpoint file:  "B3LYP6-31G2dfp.O.chk"
 -
 O
 -
 Charge =  0 Multiplicity = 3

                         Standard orientation:
 ---------------------------------------------------------------------
 Center     Atomic      Atomic             Coordinates (Angstroms)
 Number     Number       Type             X           Y           Z
 ---------------------------------------------------------------------
      1          8           0        0.000000    0.000000    0.000000
 ---------------------------------------------------------------------

 SCF Done:  E(UB3LYP) =  -75.0645794394     A.U. after    1 cycles

 Unable to determine electronic state:  an orbital has unidentified symmetry.
 Alpha  occ. eigenvalues --  -19.27667  -1.00592  -0.44473  -0.44473  -0.36797
 Alpha virt. eigenvalues --    0.70296   0.79340   0.79340   0.84012   0.88577
 Alpha virt. eigenvalues --    0.88577   0.91434   0.91434   0.92519   3.96685
 Alpha virt. eigenvalues --    3.96685   4.02660   4.02660   4.04741   4.88413

  Beta  occ. eigenvalues --  -19.22756  -0.84771  -0.31814
  Beta virt. eigenvalues --   -0.16203  -0.16203   0.76369   0.86829   0.90633
  Beta virt. eigenvalues --    0.90633   0.94924   0.94924   0.95267   0.95690
  Beta virt. eigenvalues --    0.95690   4.12107   4.12107   4.12926   4.15153

 Mulliken charges and spin densities:
               1          2
     1  O    0.000000   2.000000
 Sum of Mulliken charges =   0.00000   2.00000

 Dipole moment (field-independent basis, Debye):
    X=              0.0000    Y=              0.0000    Z=              0.0000  Tot=              0.0000
 Quadrupole moment (field-independent basis, Debye-Ang):
   XX=             -5.6242   YY=             -4.5428   ZZ=             -4.5428
   XY=             -0.0000   XZ=              0.0000   YZ=              0.0000

  Exact polarizability:   3.030  -0.000   3.419   0.000  -0.000   3.419
 Approx polarizability:   3.298  -0.000   4.152  -0.000  -0.000   4.152

 - Thermochemistry -
 -------------------
 Temperature   298.150 Kelvin.  Pressure   1.00000 Atm.
 Atom     1 has atomic number  8 and mass  15.99491
 Molecular mass:    15.99491 amu.
 Zero-point vibrational energy          0.0 (Joules/Mol)
                                    0.00000 (Kcal/Mol)
 Vibrational temperatures:
          (Kelvin)

 Zero-point correction=                           0.000000 (Hartree/Particle)
 Thermal correction to Energy=                    0.001416
 Thermal correction to Enthalpy=                  0.002360
 Thermal correction to Gibbs Free Energy=        -0.014952
 Sum of electronic and zero-point Energies=            -75.064579
 Sum of electronic and thermal Energies=               -75.063163
 Sum of electronic and thermal Enthalpies=             -75.062219
 Sum of electronic and thermal Free Energies=          -75.079532

                     E (Thermal)             CV                S
                      KCal/Mol        Cal/Mol-Kelvin    Cal/Mol-Kelvin
 Total                    0.889              2.981             36.438
 Electronic               0.000              0.000              2.183
 Translational            0.889              2.981             34.255
 Rotational               0.000              0.000              0.000
 Vibrational              0.000              0.000              0.000

 Optimization completed.
    -- Stationary point found.
 Normal termination of Gaussian 09 at Mon Oct 17 17:08:26 2022.
