 Gaussian 09, Revision D.01,
 Gaussian 09:  ES64L-G09RevD.01 24-Apr-2013

 -------------------------
 #P OPT Freq B3LYP/6-31G**
 -------------------------

 -
 O
 -
 Symbolic Z-matrix:
 Charge =  0 Multiplicity = 3

 SCF Done:  E(UB3LYP) =  -75.0606231181     A.U. after   10 cycles
 Optimization completed.
    -- Stationary point found.
 Normal termination of Gaussian 09 at Wed Jul  7 09:43:32 2021.

 ----------------------------------------------------------------------
 #P Geom=AllCheck Guess=TCheck SCRF=Check GenChk UB3LYP/6-31G(d,p) Freq
 ----------------------------------------------------------------------

 Structure from the checkpoint file:  "/vol2/users/liuj201281/HOFBenchmark/IsodesmicSplit/Sample60/DataSet/Gau-32292.chk"
 -
 O
 -
 Charge =  0 Multiplicity = 3

                         Standard orientation:
 ---------------------------------------------------------------------
 Center     Atomic      Atomic             Coordinates (Angstroms)
 Number     Number       Type             X           Y           Z
 ---------------------------------------------------------------------
      1          8           0        0.000000    0.000000    0.000000
 ---------------------------------------------------------------------

 SCF Done:  E(UB3LYP) =  -75.0606231181     A.U. after    1 cycles

 Unable to determine electronic state:  an orbital has unidentified symmetry.
 Alpha  occ. eigenvalues --  -19.29105  -1.00617  -0.44643  -0.44643  -0.36991
 Alpha virt. eigenvalues --    0.68984   0.79177   0.79177   0.83864   1.67557
 Alpha virt. eigenvalues --    1.67557   1.72384   1.72384   1.74076   3.12241
  Beta  occ. eigenvalues --  -19.24167  -0.84824  -0.31772
  Beta virt. eigenvalues --   -0.16469  -0.16469   0.74075   0.86790   0.90413
  Beta virt. eigenvalues --    0.90413   1.79409   1.79409   1.79973   1.81039
  Beta virt. eigenvalues --    1.81039   3.21011

 Mulliken charges and spin densities:
               1          2
     1  O    0.000000   2.000000
 Sum of Mulliken charges =   0.00000   2.00000

 Dipole moment (field-independent basis, Debye):
    X=              0.0000    Y=              0.0000    Z=              0.0000  Tot=              0.0000
 Quadrupole moment (field-independent basis, Debye-Ang):
   XX=             -4.5405   YY=             -5.6471   ZZ=             -4.5405
   XY=              0.0000   XZ=              0.0000   YZ=              0.0000

  Exact polarizability:   2.541   0.000   1.996   0.000   0.000   2.541
 Approx polarizability:   2.996   0.000   2.075   0.000   0.000   2.996

 - Thermochemistry -
 -------------------
 Temperature   298.150 Kelvin.  Pressure   1.00000 Atm.
 Atom     1 has atomic number  8 and mass  15.99491
 Molecular mass:    15.99491 amu.
 Zero-point vibrational energy          0.0 (Joules/Mol)
                                    0.00000 (Kcal/Mol)
 Vibrational temperatures:
          (Kelvin)

 Zero-point correction=                           0.000000 (Hartree/Particle)
 Thermal correction to Energy=                    0.001416
 Thermal correction to Enthalpy=                  0.002360
 Thermal correction to Gibbs Free Energy=        -0.014952
 Sum of electronic and zero-point Energies=            -75.060623
 Sum of electronic and thermal Energies=               -75.059207
 Sum of electronic and thermal Enthalpies=             -75.058263
 Sum of electronic and thermal Free Energies=          -75.075575

                     E (Thermal)             CV                S
                      KCal/Mol        Cal/Mol-Kelvin    Cal/Mol-Kelvin
 Total                    0.889              2.981             36.438
 Electronic               0.000              0.000              2.183
 Translational            0.889              2.981             34.255
 Rotational               0.000              0.000              0.000
 Vibrational              0.000              0.000              0.000

 Optimization completed.
    -- Stationary point found.
 Normal termination of Gaussian 09 at Wed Jul  7 09:43:34 2021.
