 Gaussian 09, Revision D.01,
 Gaussian 09:  ES64L-G09RevD.01 24-Apr-2013

 -------------------------
 #P OPT Freq B3LYP/6-31G**
 -------------------------

 -
 N
 -
 Symbolic Z-matrix:
 Charge =  0 Multiplicity = 4

 SCF Done:  E(UB3LYP) =  -54.5844894070     A.U. after    9 cycles
 Optimization completed.
    -- Stationary point found.
 Normal termination of Gaussian 09 at Wed Jul  7 09:43:36 2021.

 ----------------------------------------------------------------------
 #P Geom=AllCheck Guess=TCheck SCRF=Check GenChk UB3LYP/6-31G(d,p) Freq
 ----------------------------------------------------------------------

 Structure from the checkpoint file:  "/vol2/users/liuj201281/HOFBenchmark/IsodesmicSplit/Sample60/DataSet/Gau-1029.chk"
 -
 N
 -
 Charge =  0 Multiplicity = 4

                         Standard orientation:
 ---------------------------------------------------------------------
 Center     Atomic      Atomic             Coordinates (Angstroms)
 Number     Number       Type             X           Y           Z
 ---------------------------------------------------------------------
      1          7           0        0.000000    0.000000    0.000000
 ---------------------------------------------------------------------

 SCF Done:  E(UB3LYP) =  -54.5844894070     A.U. after    1 cycles

 The electronic state is 4-A1G.
 Alpha  occ. eigenvalues --  -14.44997  -0.80505  -0.34893  -0.34893  -0.34893
 Alpha virt. eigenvalues --    0.62684   0.62782   0.62782   0.62782   1.64055
 Alpha virt. eigenvalues --    1.64055   1.64055   1.64055   1.64055   3.15387
  Beta  occ. eigenvalues --  -14.39465  -0.60866
  Beta virt. eigenvalues --   -0.09515  -0.09515  -0.09515   0.70447   0.73373
  Beta virt. eigenvalues --    0.73373   0.73373   1.78686   1.78686   1.78686
  Beta virt. eigenvalues --    1.78686   1.78686   3.27290

 Mulliken charges and spin densities:
               1          2
     1  N    0.000000   3.000000
 Sum of Mulliken charges =   0.00000   3.00000

 Dipole moment (field-independent basis, Debye):
    X=              0.0000    Y=              0.0000    Z=              0.0000  Tot=              0.0000
 Quadrupole moment (field-independent basis, Debye-Ang):
   XX=             -5.3555   YY=             -5.3555   ZZ=             -5.3555
   XY=              0.0000   XZ=              0.0000   YZ=              0.0000

  Exact polarizability:   3.930   0.000   3.930   0.000   0.000   3.930
 Approx polarizability:   4.369   0.000   4.369   0.000   0.000   4.369

 - Thermochemistry -
 -------------------
 Temperature   298.150 Kelvin.  Pressure   1.00000 Atm.
 Atom     1 has atomic number  7 and mass  14.00307
 Molecular mass:    14.00307 amu.
 Zero-point vibrational energy          0.0 (Joules/Mol)
                                    0.00000 (Kcal/Mol)
 Vibrational temperatures:
          (Kelvin)

 Zero-point correction=                           0.000000 (Hartree/Particle)
 Thermal correction to Energy=                    0.001416
 Thermal correction to Enthalpy=                  0.002360
 Thermal correction to Gibbs Free Energy=        -0.015036
 Sum of electronic and zero-point Energies=            -54.584489
 Sum of electronic and thermal Energies=               -54.583073
 Sum of electronic and thermal Enthalpies=             -54.582129
 Sum of electronic and thermal Free Energies=          -54.599525

                     E (Thermal)             CV                S
                      KCal/Mol        Cal/Mol-Kelvin    Cal/Mol-Kelvin
 Total                    0.889              2.981             36.613
 Electronic               0.000              0.000              2.755
 Translational            0.889              2.981             33.858
 Rotational               0.000              0.000              0.000
 Vibrational              0.000              0.000              0.000

 Optimization completed.
    -- Stationary point found.
 Normal termination of Gaussian 09 at Wed Jul  7 09:43:38 2021.
