 Gaussian 09, Revision D.01,
 Gaussian 09:  ES64L-G09RevD.01 24-Apr-2013

 -----
 #P G4
 -----

 -
 C
 -
 Symbolic Z-matrix:
 Charge =  0 Multiplicity = 3

 SCF Done:  E(UB3LYP) =  -37.8467716523     A.U. after    8 cycles
 Optimization completed.
    -- Stationary point found.
 Normal termination of Gaussian 09 at Mon May 31 16:39:15 2021.

 ----------------------------------------------------------
 #P Geom=AllCheck Guess=TCheck SCRF=Check B3LYP/GTBas3 Freq
 ----------------------------------------------------------

 Structure from the checkpoint file:  "/vol2/users/liuj201281/HOFBenchmark/Gn/Done/Gau-25918.chk"
 -
 C
 -
 Charge =  0 Multiplicity = 3

 SCF Done:  E(UB3LYP) =  -37.8467716523     A.U. after    1 cycles

  Exact polarizability:   7.368   0.000   7.368   0.000   0.000   7.717
 Approx polarizability:   8.104   0.000   8.104   0.000   0.000  11.803

 - Thermochemistry -
 -------------------
 Temperature   298.150 Kelvin.  Pressure   1.00000 Atm.
 Atom     1 has atomic number  6 and mass  12.00000
 Molecular mass:    12.00000 amu.
 Zero-point vibrational energy          0.0 (Joules/Mol)
                                    0.00000 (Kcal/Mol)
 Vibrational temperatures:
          (Kelvin)

 Zero-point correction=                           0.000000 (Hartree/Particle)
 Thermal correction to Energy=                    0.001416
 Thermal correction to Enthalpy=                  0.002360
 Thermal correction to Gibbs Free Energy=        -0.014545
 Sum of electronic and zero-point Energies=            -37.846772
 Sum of electronic and thermal Energies=               -37.845355
 Sum of electronic and thermal Enthalpies=             -37.844411
 Sum of electronic and thermal Free Energies=          -37.861317

                     E (Thermal)             CV                S
                      KCal/Mol        Cal/Mol-Kelvin    Cal/Mol-Kelvin
 Total                    0.889              2.981             35.581
 Electronic               0.000              0.000              2.183
 Translational            0.889              2.981             33.398
 Rotational               0.000              0.000              0.000
 Vibrational              0.000              0.000              0.000

 Optimization completed.
    -- Stationary point found.
 Normal termination of Gaussian 09 at Mon May 31 16:39:27 2021.

 -----------------------------------------------------------------
 #P Geom=AllCheck Guess=TCheck SCRF=Check CCSD(T,E4T,FrzG4)/GTBas1
 -----------------------------------------------------------------

 Structure from the checkpoint file:  "/vol2/users/liuj201281/HOFBenchmark/Gn/Done/Gau-25918.chk"
 -
 C
 -
 Charge =  0 Multiplicity = 3

 SCF Done:  E(UHF) =  -37.6808603247     A.U. after    8 cycles
 E2 =    -0.5211413376D-01 EUMP2 =    -0.37732974458458D+02
 CCSD(T)
 CCSD(T)= -0.37752739165D+02
 -37.751804\CCSD(T)=-37.7527392\S2=2.004769\S2-1=1.999926\S2A=2.\RMSD=2
 Normal termination of Gaussian 09 at Mon May 31 16:39:45 2021.

 ---------------------------------------------------------
 #P Geom=AllCheck Guess=TCheck SCRF=Check MP4=FrzG4/GTBas2
 ---------------------------------------------------------

 Structure from the checkpoint file:  "/vol2/users/liuj201281/HOFBenchmark/Gn/Done/Gau-25918.chk"
 -
 C
 -
 Charge =  0 Multiplicity = 3

 SCF Done:  E(UHF) =  -37.6837461177     A.U. after    9 cycles
 E2 =    -0.5286597359D-01 EUMP2 =    -0.37736612091281D+02
 Normal termination of Gaussian 09 at Mon May 31 16:39:48 2021.

 ---------------------------------------------------------
 #P Geom=AllCheck Guess=TCheck SCRF=Check MP4=FrzG4/GTBas3
 ---------------------------------------------------------

 Structure from the checkpoint file:  "/vol2/users/liuj201281/HOFBenchmark/Gn/Done/Gau-25918.chk"
 -
 C
 -
 Charge =  0 Multiplicity = 3

 SCF Done:  E(UHF) =  -37.6827805085     A.U. after    8 cycles
 E2 =    -0.6244739191D-01 EUMP2 =    -0.37745227900426D+02
 Normal termination of Gaussian 09 at Mon May 31 16:40:01 2021.

 -----------------------------------------------------------
 #P Geom=AllCheck Guess=TCheck SCRF=Check MP2=Full/GTLargeXP
 -----------------------------------------------------------

 Structure from the checkpoint file:  "/vol2/users/liuj201281/HOFBenchmark/Gn/Done/Gau-25918.chk"
 -
 C
 -
 Charge =  0 Multiplicity = 3

 SCF Done:  E(UHF) =  -37.6902649036     A.U. after    9 cycles
 E2 =    -0.1084095712D+00 EUMP2 =    -0.37798674474816D+02
 Normal termination of Gaussian 09 at Mon May 31 16:40:17 2021.
 SCF Done:  E(UHF) =  -37.6933434492     A.U. after    8 cycles
 Normal termination of Gaussian 09 at Mon May 31 16:40:22 2021.

                         Standard orientation:
 ---------------------------------------------------------------------
 Center     Atomic      Atomic             Coordinates (Angstroms)
 Number     Number       Type             X           Y           Z
 ---------------------------------------------------------------------
      1          6           0        0.000000    0.000000    0.000000
 ---------------------------------------------------------------------

 SCF Done:  E(UHF) =  -37.6936860975     A.U. after    7 cycles

 Unable to determine electronic state:  an orbital has unidentified symmetry.
 Alpha  occ. eigenvalues --  -11.34550  -0.82922  -0.43908  -0.43908
 Alpha virt. eigenvalues --    0.01622   0.06612   0.06612   0.07436   0.08467
 Alpha virt. eigenvalues --    0.29446   0.29446   0.33052   0.42831   0.51259
 Alpha virt. eigenvalues --    0.51259   0.51913   0.51913   0.52248   0.95576

  Beta  occ. eigenvalues --  -11.30045  -0.58341
  Beta virt. eigenvalues --    0.03328   0.05067   0.05067   0.08223   0.09980
  Beta virt. eigenvalues --    0.13519   0.13519   0.34656   0.37832   0.37832
  Beta virt. eigenvalues --    0.46086   0.54290   0.54831   0.54831   0.56927

 Mulliken charges and spin densities:
               1          2
     1  C    0.000000   2.000000
 Sum of Mulliken charges =   0.00000   2.00000

 Dipole moment (field-independent basis, Debye):
    X=              0.0000    Y=              0.0000    Z=              0.0000  Tot=              0.0000
 Quadrupole moment (field-independent basis, Debye-Ang):
   XX=             -6.8325   YY=             -6.8325   ZZ=             -4.8385
   XY=              0.0000   XZ=              0.0000   YZ=              0.0000

 Normal termination of Gaussian 09 at Mon May 31 16:40:40 2021.
