 Gaussian 09, Revision D.01,
 Gaussian 09:  ES64L-G09RevD.01 24-Apr-2013

 -----
 #P G4
 -----

 -
 H
 -
 Symbolic Z-matrix:
 Charge =  0 Multiplicity = 2

 SCF Done:  E(UB3LYP) = -0.500272784192     A.U. after    5 cycles
 Optimization completed.
    -- Stationary point found.
 Normal termination of Gaussian 09 at Mon May 31 16:36:05 2021.

 ----------------------------------------------------------
 #P Geom=AllCheck Guess=TCheck SCRF=Check B3LYP/GTBas3 Freq
 ----------------------------------------------------------

 Structure from the checkpoint file:  "/vol2/users/liuj201281/HOFBenchmark/Gn/Done/Gau-9098.chk"
 -
 H
 -
 Charge =  0 Multiplicity = 2

 SCF Done:  E(UB3LYP) = -0.500272784192     A.U. after    1 cycles

  Exact polarizability:   0.265   0.000   0.265   0.000   0.000   0.265
 Approx polarizability:   0.242   0.000   0.242   0.000   0.000   0.242

 - Thermochemistry -
 -------------------
 Temperature   298.150 Kelvin.  Pressure   1.00000 Atm.
 Atom     1 has atomic number  1 and mass   1.00783
 Molecular mass:     1.00783 amu.
 Zero-point vibrational energy          0.0 (Joules/Mol)
                                    0.00000 (Kcal/Mol)
 Vibrational temperatures:
          (Kelvin)

 Zero-point correction=                           0.000000 (Hartree/Particle)
 Thermal correction to Energy=                    0.001416
 Thermal correction to Enthalpy=                  0.002360
 Thermal correction to Gibbs Free Energy=        -0.010654
 Sum of electronic and zero-point Energies=             -0.500273
 Sum of electronic and thermal Energies=                -0.498857
 Sum of electronic and thermal Enthalpies=              -0.497912
 Sum of electronic and thermal Free Energies=           -0.510927

                     E (Thermal)             CV                S
                      KCal/Mol        Cal/Mol-Kelvin    Cal/Mol-Kelvin
 Total                    0.889              2.981             27.392
 Electronic               0.000              0.000              1.377
 Translational            0.889              2.981             26.014
 Rotational               0.000              0.000              0.000
 Vibrational              0.000              0.000              0.000

 Optimization completed.
    -- Stationary point found.
 Normal termination of Gaussian 09 at Mon May 31 16:36:14 2021.

 -----------------------------------------------------------------
 #P Geom=AllCheck Guess=TCheck SCRF=Check CCSD(T,E4T,FrzG4)/GTBas1
 -----------------------------------------------------------------

 Structure from the checkpoint file:  "/vol2/users/liuj201281/HOFBenchmark/Gn/Done/Gau-9098.chk"
 -
 H
 -
 Charge =  0 Multiplicity = 2

 SCF Done:  E(UHF) = -0.498232909202     A.U. after    4 cycles
 E2 =     0.0000000000D+00 EUMP2 =    -0.49823290920158D+00
 CCSD(T)
 CCSD(T)= -0.49823290920D+00
 4SDQ=-0.4982329\CCSD=-0.4982329\CCSD(T)=-0.4982329\S2=0.75\S2-1=0.\S2A
 Normal termination of Gaussian 09 at Mon May 31 16:36:16 2021.

 ---------------------------------------------------------
 #P Geom=AllCheck Guess=TCheck SCRF=Check MP4=FrzG4/GTBas2
 ---------------------------------------------------------

 Structure from the checkpoint file:  "/vol2/users/liuj201281/HOFBenchmark/Gn/Done/Gau-9098.chk"
 -
 H
 -
 Charge =  0 Multiplicity = 2

 SCF Done:  E(UHF) = -0.498232909202     A.U. after    1 cycles
 E2 =     0.0000000000D+00 EUMP2 =    -0.49823290920158D+00
 Normal termination of Gaussian 09 at Mon May 31 16:36:17 2021.

 ---------------------------------------------------------
 #P Geom=AllCheck Guess=TCheck SCRF=Check MP4=FrzG4/GTBas3
 ---------------------------------------------------------

 Structure from the checkpoint file:  "/vol2/users/liuj201281/HOFBenchmark/Gn/Done/Gau-9098.chk"
 -
 H
 -
 Charge =  0 Multiplicity = 2

 SCF Done:  E(UHF) = -0.498232909202     A.U. after    1 cycles
 E2 =     0.0000000000D+00 EUMP2 =    -0.49823290920158D+00
 Normal termination of Gaussian 09 at Mon May 31 16:36:20 2021.

 -----------------------------------------------------------
 #P Geom=AllCheck Guess=TCheck SCRF=Check MP2=Full/GTLargeXP
 -----------------------------------------------------------

 Structure from the checkpoint file:  "/vol2/users/liuj201281/HOFBenchmark/Gn/Done/Gau-9098.chk"
 -
 H
 -
 Charge =  0 Multiplicity = 2

 SCF Done:  E(UHF) = -0.499817915630     A.U. after    6 cycles
 E2 =     0.0000000000D+00 EUMP2 =    -0.49981791563042D+00
 Normal termination of Gaussian 09 at Mon May 31 16:36:24 2021.
 SCF Done:  E(UHF) = -0.499945568583     A.U. after    5 cycles
 Normal termination of Gaussian 09 at Mon May 31 16:36:29 2021.

                         Standard orientation:
 ---------------------------------------------------------------------
 Center     Atomic      Atomic             Coordinates (Angstroms)
 Number     Number       Type             X           Y           Z
 ---------------------------------------------------------------------
      1          1           0        0.000000    0.000000    0.000000
 ---------------------------------------------------------------------

 SCF Done:  E(UHF) = -0.499994535159     A.U. after    6 cycles

 The electronic state is 2-A1G.
 Alpha  occ. eigenvalues --   -0.49999
 Alpha virt. eigenvalues --    0.18025   0.53193   0.53193   0.53193   0.91050
 Alpha virt. eigenvalues --    2.06815   2.06815   2.06815   2.06815   2.06815
 Alpha virt. eigenvalues --    2.35019   2.35019   2.35019   3.10127   7.76335

 Mulliken charges and spin densities:
               1          2
     1  H    0.000000   1.000000
 Sum of Mulliken charges =   0.00000   1.00000

 Dipole moment (field-independent basis, Debye):
    X=              0.0000    Y=              0.0000    Z=              0.0000  Tot=              0.0000
 Quadrupole moment (field-independent basis, Debye-Ang):
   XX=             -1.3447   YY=             -1.3447   ZZ=             -1.3447
   XY=              0.0000   XZ=              0.0000   YZ=              0.0000

 Normal termination of Gaussian 09 at Mon May 31 16:36:32 2021.
