 Gaussian 09, Revision D.01,
 Gaussian 09:  ES64L-G09RevD.01 24-Apr-2013

 -----
 #P G4
 -----

 -
 N
 -
 Symbolic Z-matrix:
 Charge =  0 Multiplicity = 4

 SCF Done:  E(UB3LYP) =  -54.5838614588     A.U. after    8 cycles
 Optimization completed.
    -- Stationary point found.
 Normal termination of Gaussian 09 at Mon May 31 16:37:46 2021.

 ----------------------------------------------------------
 #P Geom=AllCheck Guess=TCheck SCRF=Check B3LYP/GTBas3 Freq
 ----------------------------------------------------------

 Structure from the checkpoint file:  "/vol2/users/liuj201281/HOFBenchmark/Gn/Done/Gau-18856.chk"
 -
 N
 -
 Charge =  0 Multiplicity = 4

 SCF Done:  E(UB3LYP) =  -54.5838614588     A.U. after    1 cycles

  Exact polarizability:   4.886   0.000   4.886   0.000   0.000   4.886
 Approx polarizability:   5.816   0.000   5.816   0.000   0.000   5.816

 - Thermochemistry -
 -------------------
 Temperature   298.150 Kelvin.  Pressure   1.00000 Atm.
 Atom     1 has atomic number  7 and mass  14.00307
 Molecular mass:    14.00307 amu.
 Zero-point vibrational energy          0.0 (Joules/Mol)
                                    0.00000 (Kcal/Mol)
 Vibrational temperatures:
          (Kelvin)

 Zero-point correction=                           0.000000 (Hartree/Particle)
 Thermal correction to Energy=                    0.001416
 Thermal correction to Enthalpy=                  0.002360
 Thermal correction to Gibbs Free Energy=        -0.015036
 Sum of electronic and zero-point Energies=            -54.583861
 Sum of electronic and thermal Energies=               -54.582445
 Sum of electronic and thermal Enthalpies=             -54.581501
 Sum of electronic and thermal Free Energies=          -54.598897

                     E (Thermal)             CV                S
                      KCal/Mol        Cal/Mol-Kelvin    Cal/Mol-Kelvin
 Total                    0.889              2.981             36.613
 Electronic               0.000              0.000              2.755
 Translational            0.889              2.981             33.858
 Rotational               0.000              0.000              0.000
 Vibrational              0.000              0.000              0.000

 Optimization completed.
    -- Stationary point found.
 Normal termination of Gaussian 09 at Mon May 31 16:37:58 2021.

 -----------------------------------------------------------------
 #P Geom=AllCheck Guess=TCheck SCRF=Check CCSD(T,E4T,FrzG4)/GTBas1
 -----------------------------------------------------------------

 Structure from the checkpoint file:  "/vol2/users/liuj201281/HOFBenchmark/Gn/Done/Gau-18856.chk"
 -
 N
 -
 Charge =  0 Multiplicity = 4

 SCF Done:  E(UHF) =  -54.3854424210     A.U. after    8 cycles
 E2 =    -0.7156547014D-01 EUMP2 =    -0.54457007891095D+02
 CCSD(T)
 CCSD(T)= -0.54473804775D+02
 4728039\CCSD=-54.4731269\CCSD(T)=-54.4738048\S2=3.755051\S2-1=3.750997
 Normal termination of Gaussian 09 at Mon May 31 16:38:05 2021.

 ---------------------------------------------------------
 #P Geom=AllCheck Guess=TCheck SCRF=Check MP4=FrzG4/GTBas2
 ---------------------------------------------------------

 Structure from the checkpoint file:  "/vol2/users/liuj201281/HOFBenchmark/Gn/Done/Gau-18856.chk"
 -
 N
 -
 Charge =  0 Multiplicity = 4

 SCF Done:  E(UHF) =  -54.3865572017     A.U. after    8 cycles
 E2 =    -0.7264231110D-01 EUMP2 =    -0.54459199512822D+02
 Normal termination of Gaussian 09 at Mon May 31 16:38:11 2021.

 ---------------------------------------------------------
 #P Geom=AllCheck Guess=TCheck SCRF=Check MP4=FrzG4/GTBas3
 ---------------------------------------------------------

 Structure from the checkpoint file:  "/vol2/users/liuj201281/HOFBenchmark/Gn/Done/Gau-18856.chk"
 -
 N
 -
 Charge =  0 Multiplicity = 4

 SCF Done:  E(UHF) =  -54.3857468623     A.U. after    8 cycles
 E2 =    -0.8827193841D-01 EUMP2 =    -0.54474018800730D+02
 Normal termination of Gaussian 09 at Mon May 31 16:38:16 2021.

 -----------------------------------------------------------
 #P Geom=AllCheck Guess=TCheck SCRF=Check MP2=Full/GTLargeXP
 -----------------------------------------------------------

 Structure from the checkpoint file:  "/vol2/users/liuj201281/HOFBenchmark/Gn/Done/Gau-18856.chk"
 -
 N
 -
 Charge =  0 Multiplicity = 4

 SCF Done:  E(UHF) =  -54.3989037694     A.U. after    8 cycles
 E2 =    -0.1395582042D+00 EUMP2 =    -0.54538461973553D+02
 Normal termination of Gaussian 09 at Mon May 31 16:38:24 2021.
 SCF Done:  E(UHF) =  -54.4038195052     A.U. after    7 cycles
 Normal termination of Gaussian 09 at Mon May 31 16:38:29 2021.

                         Standard orientation:
 ---------------------------------------------------------------------
 Center     Atomic      Atomic             Coordinates (Angstroms)
 Number     Number       Type             X           Y           Z
 ---------------------------------------------------------------------
      1          7           0        0.000000    0.000000    0.000000
 ---------------------------------------------------------------------

 SCF Done:  E(UHF) =  -54.4044677699     A.U. after    7 cycles

 The electronic state is 4-A1G.
 Alpha  occ. eigenvalues --  -15.67074  -1.16298  -0.57092  -0.57092  -0.57092
 Alpha virt. eigenvalues --    0.08843   0.08843   0.08843   0.09562   0.40005
 Alpha virt. eigenvalues --    0.40005   0.40005   0.56268   0.73256   0.73256
 Alpha virt. eigenvalues --    0.73256   0.73256   0.73256   1.32318   1.32318

  Beta  occ. eigenvalues --  -15.58097  -0.72582
  Beta virt. eigenvalues --    0.06355   0.06355   0.06355   0.10880   0.16614
  Beta virt. eigenvalues --    0.16614   0.16614   0.50311   0.50311   0.50311
  Beta virt. eigenvalues --    0.61994   0.80206   0.80206   0.80206   0.80206

 Mulliken charges and spin densities:
               1          2
     1  N    0.000000   3.000000
 Sum of Mulliken charges =   0.00000   3.00000

 Dipole moment (field-independent basis, Debye):
    X=              0.0000    Y=              0.0000    Z=              0.0000  Tot=              0.0000
 Quadrupole moment (field-independent basis, Debye-Ang):
   XX=             -5.4153   YY=             -5.4153   ZZ=             -5.4153
   XY=              0.0000   XZ=              0.0000   YZ=              0.0000

 Normal termination of Gaussian 09 at Mon May 31 16:38:53 2021.
