 Gaussian 09, Revision D.01,
 Gaussian 09:  ES64L-G09RevD.01 24-Apr-2013

 ---------------------------------------------
 #P OPT Freq M062X/6-31+G(2df,p) INT=UltraFine
 ---------------------------------------------

 -
 C
 -
 Symbolic Z-matrix:
 Charge =  0 Multiplicity = 3

 SCF Done:  E(UM062X) =  -37.8340289619     A.U. after    8 cycles
 Optimization completed.
    -- Stationary point found.
 Normal termination of Gaussian 09 at Tue Jan  3 00:40:11 2023.

 ----------------------------------------------------------------------
 #P Geom=AllCheck Guess=TCheck SCRF=Check GenChk UM062X/6-31+G(2df,p) F
 req
 ----------------------------------------------------------------------

 Structure from the checkpoint file:  "/home/liujian/AtomEnthalpy/Gau-3179.chk"
 -
 C
 -
 Charge =  0 Multiplicity = 3

                         Standard orientation:
 ---------------------------------------------------------------------
 Center     Atomic      Atomic             Coordinates (Angstroms)
 Number     Number       Type             X           Y           Z
 ---------------------------------------------------------------------
      1          6           0        0.000000    0.000000    0.000000
 ---------------------------------------------------------------------

 SCF Done:  E(UM062X) =  -37.8340289619     A.U. after    1 cycles

 Unable to determine electronic state:  an orbital has unidentified symmetry.
 Alpha  occ. eigenvalues --  -10.67380  -0.66910  -0.32167  -0.32167
 Alpha virt. eigenvalues --   -0.09932   0.06700   0.08871   0.09459   0.09459
 Alpha virt. eigenvalues --    0.67669   0.67669   0.69469   0.74541   0.86734
 Alpha virt. eigenvalues --    0.86734   0.86958   0.86958   0.87496   2.08001

  Beta  occ. eigenvalues --  -10.65454  -0.54141
  Beta virt. eigenvalues --   -0.06876  -0.04079  -0.04079   0.04925   0.10797
  Beta virt. eigenvalues --    0.12618   0.12618   0.69455   0.72465   0.72465
  Beta virt. eigenvalues --    0.74542   0.88181   0.88952   0.88952   0.90603

 Mulliken charges and spin densities:
               1          2
     1  C    0.000000   2.000000
 Sum of Mulliken charges =   0.00000   2.00000

 Dipole moment (field-independent basis, Debye):
    X=              0.0000    Y=              0.0000    Z=              0.0000  Tot=              0.0000
 Quadrupole moment (field-independent basis, Debye-Ang):
   XX=             -6.9410   YY=             -6.9410   ZZ=             -4.9579
   XY=              0.0000   XZ=              0.0000   YZ=              0.0000

  Exact polarizability:  10.341   0.000  10.341   0.000   0.000   8.122
 Approx polarizability:   8.273   0.000   8.273   0.000   0.000   9.565

 - Thermochemistry -
 -------------------
 Temperature   298.150 Kelvin.  Pressure   1.00000 Atm.
 Atom     1 has atomic number  6 and mass  12.00000
 Molecular mass:    12.00000 amu.
 Zero-point vibrational energy          0.0 (Joules/Mol)
                                    0.00000 (Kcal/Mol)
 Vibrational temperatures:
          (Kelvin)

 Zero-point correction=                           0.000000 (Hartree/Particle)
 Thermal correction to Energy=                    0.001416
 Thermal correction to Enthalpy=                  0.002360
 Thermal correction to Gibbs Free Energy=        -0.014545
 Sum of electronic and zero-point Energies=            -37.834029
 Sum of electronic and thermal Energies=               -37.832613
 Sum of electronic and thermal Enthalpies=             -37.831668
 Sum of electronic and thermal Free Energies=          -37.848574

                     E (Thermal)             CV                S
                      KCal/Mol        Cal/Mol-Kelvin    Cal/Mol-Kelvin
 Total                    0.889              2.981             35.581
 Electronic               0.000              0.000              2.183
 Translational            0.889              2.981             33.398
 Rotational               0.000              0.000              0.000
 Vibrational              0.000              0.000              0.000

 Optimization completed.
    -- Stationary point found.
 Normal termination of Gaussian 09 at Tue Jan  3 00:40:16 2023.
