 Gaussian 09, Revision D.01,
 Gaussian 09:  ES64L-G09RevD.01 24-Apr-2013

 ---------------------------------------------
 #P OPT Freq M062X/6-31+G(2df,p) INT=UltraFine
 ---------------------------------------------

 -
 O
 -
 Symbolic Z-matrix:
 Charge =  0 Multiplicity = 3

 SCF Done:  E(UM062X) =  -75.0409371593     A.U. after   12 cycles
 Optimization completed.
    -- Stationary point found.
 Normal termination of Gaussian 09 at Tue Jan  3 00:40:22 2023.

 ----------------------------------------------------------------------
 #P Geom=AllCheck Guess=TCheck SCRF=Check GenChk UM062X/6-31+G(2df,p) F
 req
 ----------------------------------------------------------------------

 Structure from the checkpoint file:  "/home/liujian/AtomEnthalpy/Gau-3212.chk"
 -
 O
 -
 Charge =  0 Multiplicity = 3

                         Standard orientation:
 ---------------------------------------------------------------------
 Center     Atomic      Atomic             Coordinates (Angstroms)
 Number     Number       Type             X           Y           Z
 ---------------------------------------------------------------------
      1          8           0        0.000000    0.000000    0.000000
 ---------------------------------------------------------------------

 SCF Done:  E(UM062X) =  -75.0409371593     A.U. after    1 cycles

 Unable to determine electronic state:  an orbital has unidentified symmetry.
 Alpha  occ. eigenvalues --  -19.77916  -1.14772  -0.54686  -0.54686  -0.48092
 Alpha virt. eigenvalues --    0.12149   0.16697   0.16697   0.17279   0.94515
 Alpha virt. eigenvalues --    0.94515   0.97003   0.97003   0.97526   1.07814
 Alpha virt. eigenvalues --    1.10155   1.10155   1.14694   4.03479   4.03479

  Beta  occ. eigenvalues --  -19.74182  -0.96509  -0.40924
  Beta virt. eigenvalues --   -0.11151  -0.11151   0.09799   0.17966   0.18284
  Beta virt. eigenvalues --    0.18284   0.94925   0.94925   0.96442   0.97747
  Beta virt. eigenvalues --    0.97747   1.09286   1.16884   1.18808   1.18808

 Mulliken charges and spin densities:
               1          2
     1  O    0.000000   2.000000
 Sum of Mulliken charges =   0.00000   2.00000

 Dipole moment (field-independent basis, Debye):
    X=              0.0000    Y=              0.0000    Z=              0.0000  Tot=              0.0000
 Quadrupole moment (field-independent basis, Debye-Ang):
   XX=             -4.7391   YY=             -6.0231   ZZ=             -4.7391
   XY=              0.0000   XZ=              0.0000   YZ=              0.0000

  Exact polarizability:   4.020   0.000   4.696   0.000   0.000   4.020
 Approx polarizability:   3.909   0.000   4.125   0.000   0.000   3.909

 - Thermochemistry -
 -------------------
 Temperature   298.150 Kelvin.  Pressure   1.00000 Atm.
 Atom     1 has atomic number  8 and mass  15.99491
 Molecular mass:    15.99491 amu.
 Zero-point vibrational energy          0.0 (Joules/Mol)
                                    0.00000 (Kcal/Mol)
 Vibrational temperatures:
          (Kelvin)

 Zero-point correction=                           0.000000 (Hartree/Particle)
 Thermal correction to Energy=                    0.001416
 Thermal correction to Enthalpy=                  0.002360
 Thermal correction to Gibbs Free Energy=        -0.014952
 Sum of electronic and zero-point Energies=            -75.040937
 Sum of electronic and thermal Energies=               -75.039521
 Sum of electronic and thermal Enthalpies=             -75.038577
 Sum of electronic and thermal Free Energies=          -75.055889

                     E (Thermal)             CV                S
                      KCal/Mol        Cal/Mol-Kelvin    Cal/Mol-Kelvin
 Total                    0.889              2.981             36.438
 Electronic               0.000              0.000              2.183
 Translational            0.889              2.981             34.255
 Rotational               0.000              0.000              0.000
 Vibrational              0.000              0.000              0.000

 Optimization completed.
    -- Stationary point found.
 Normal termination of Gaussian 09 at Tue Jan  3 00:40:25 2023.
