 Gaussian 09, Revision D.01,
 Gaussian 09:  ES64L-G09RevD.01 24-Apr-2013

 ---------------------------------------------
 #P OPT Freq M062X/6-31+G(2df,p) INT=UltraFine
 ---------------------------------------------

 -
 N
 -
 Symbolic Z-matrix:
 Charge =  0 Multiplicity = 4

 SCF Done:  E(UM062X) =  -54.5698283714     A.U. after   11 cycles
 Optimization completed.
    -- Stationary point found.
 Normal termination of Gaussian 09 at Tue Jan  3 00:40:19 2023.

 ----------------------------------------------------------------------
 #P Geom=AllCheck Guess=TCheck SCRF=Check GenChk UM062X/6-31+G(2df,p) F
 req
 ----------------------------------------------------------------------

 Structure from the checkpoint file:  "/home/liujian/AtomEnthalpy/Gau-3202.chk"
 -
 N
 -
 Charge =  0 Multiplicity = 4

                         Standard orientation:
 ---------------------------------------------------------------------
 Center     Atomic      Atomic             Coordinates (Angstroms)
 Number     Number       Type             X           Y           Z
 ---------------------------------------------------------------------
      1          7           0        0.000000    0.000000    0.000000
 ---------------------------------------------------------------------

 SCF Done:  E(UM062X) =  -54.5698283714     A.U. after    1 cycles

 The electronic state is 4-A1G.
 Alpha  occ. eigenvalues --  -14.86512  -0.91742  -0.43041  -0.43041  -0.43041
 Alpha virt. eigenvalues --    0.09680   0.12870   0.12870   0.12870   0.87177
 Alpha virt. eigenvalues --    0.87177   0.87177   0.90947   0.90947   0.90947
 Alpha virt. eigenvalues --    0.90947   0.90947   1.06743   3.51609   3.51609

  Beta  occ. eigenvalues --  -14.82427  -0.69075
  Beta virt. eigenvalues --   -0.06057  -0.06057  -0.06057   0.07066   0.16731
  Beta virt. eigenvalues --    0.16731   0.16731   0.92771   0.92771   0.92771
  Beta virt. eigenvalues --    0.92771   0.92771   0.94026   0.94026   0.94026

 Mulliken charges and spin densities:
               1          2
     1  N    0.000000   3.000000
 Sum of Mulliken charges =   0.00000   3.00000

 Dipole moment (field-independent basis, Debye):
    X=              0.0000    Y=              0.0000    Z=              0.0000  Tot=              0.0000
 Quadrupole moment (field-independent basis, Debye-Ang):
   XX=             -5.5475   YY=             -5.5475   ZZ=             -5.5475
   XY=              0.0000   XZ=              0.0000   YZ=              0.0000

  Exact polarizability:   6.009   0.000   6.009   0.000   0.000   6.009
 Approx polarizability:   5.539   0.000   5.539   0.000   0.000   5.539

 - Thermochemistry -
 -------------------
 Temperature   298.150 Kelvin.  Pressure   1.00000 Atm.
 Atom     1 has atomic number  7 and mass  14.00307
 Molecular mass:    14.00307 amu.
 Zero-point vibrational energy          0.0 (Joules/Mol)
                                    0.00000 (Kcal/Mol)
 Vibrational temperatures:
          (Kelvin)

 Zero-point correction=                           0.000000 (Hartree/Particle)
 Thermal correction to Energy=                    0.001416
 Thermal correction to Enthalpy=                  0.002360
 Thermal correction to Gibbs Free Energy=        -0.015036
 Sum of electronic and zero-point Energies=            -54.569828
 Sum of electronic and thermal Energies=               -54.568412
 Sum of electronic and thermal Enthalpies=             -54.567468
 Sum of electronic and thermal Free Energies=          -54.584864

                     E (Thermal)             CV                S
                      KCal/Mol        Cal/Mol-Kelvin    Cal/Mol-Kelvin
 Total                    0.889              2.981             36.613
 Electronic               0.000              0.000              2.755
 Translational            0.889              2.981             33.858
 Rotational               0.000              0.000              0.000
 Vibrational              0.000              0.000              0.000

 Optimization completed.
    -- Stationary point found.
 Normal termination of Gaussian 09 at Tue Jan  3 00:40:21 2023.
